 Entering Gaussian System, Link 0=/g100_work/pMI24_ChiCa/g09d1/g09d01/d01/build-node-6-2-59348/src/main/g09
 Input=geom.com
 Output=geom.log
 Initial command:
 /g100_work/pMI24_ChiCa/g09d1/g09d01/d01/build-node-6-2-59348/src/main/l1.exe "/g100_scratch/userexternal/ecabiati/g16_14421766/Gau-35788.inp" -scrdir="/g100_scratch/userexternal/ecabiati/g16_14421766/"
 Entering Link 1 = /g100_work/pMI24_ChiCa/g09d1/g09d01/d01/build-node-6-2-59348/src/main/l1.exe PID=     35789.
  
 Copyright (c) 1988,1990,1992,1993,1995,1998,2003,2009,2013,
            Gaussian, Inc.  All Rights Reserved.
  
 This is part of the Gaussian(R) 09 program.  It is based on
 the Gaussian(R) 03 system (copyright 2003, Gaussian, Inc.),
 the Gaussian(R) 98 system (copyright 1998, Gaussian, Inc.),
 the Gaussian(R) 94 system (copyright 1995, Gaussian, Inc.),
 the Gaussian 92(TM) system (copyright 1992, Gaussian, Inc.),
 the Gaussian 90(TM) system (copyright 1990, Gaussian, Inc.),
 the Gaussian 88(TM) system (copyright 1988, Gaussian, Inc.),
 the Gaussian 86(TM) system (copyright 1986, Carnegie Mellon
 University), and the Gaussian 82(TM) system (copyright 1983,
 Carnegie Mellon University). Gaussian is a federally registered
 trademark of Gaussian, Inc.
  
 This software contains proprietary and confidential information,
 including trade secrets, belonging to Gaussian, Inc.
  
 This software is provided under written license and may be
 used, copied, transmitted, or stored only in accord with that
 written license.
  
 The following legend is applicable only to US Government
 contracts under FAR:
  
                    RESTRICTED RIGHTS LEGEND
  
 Use, reproduction and disclosure by the US Government is
 subject to restrictions as set forth in subparagraphs (a)
 and (c) of the Commercial Computer Software - Restricted
 Rights clause in FAR 52.227-19.
  
 Gaussian, Inc.
 340 Quinnipiac St., Bldg. 40, Wallingford CT 06492
  
  
 ---------------------------------------------------------------
 Warning -- This program may not be used in any manner that
 competes with the business of Gaussian, Inc. or will provide
 assistance to any competitor of Gaussian, Inc.  The licensee
 of this program is prohibited from giving any competitor of
 Gaussian, Inc. access to this program.  By using this program,
 the user acknowledges that Gaussian, Inc. is engaged in the
 business of creating and licensing software in the field of
 computational chemistry and represents and warrants to the
 licensee that it is not a competitor of Gaussian, Inc. and that
 it will not use this program in any manner prohibited above.
 ---------------------------------------------------------------
  

 Cite this work as:
 Gaussian 09, Revision D.01,
 M. J. Frisch, G. W. Trucks, H. B. Schlegel, G. E. Scuseria, 
 M. A. Robb, J. R. Cheeseman, G. Scalmani, V. Barone, B. Mennucci, 
 G. A. Petersson, H. Nakatsuji, M. Caricato, X. Li, H. P. Hratchian, 
 A. F. Izmaylov, J. Bloino, G. Zheng, J. L. Sonnenberg, M. Hada, 
 M. Ehara, K. Toyota, R. Fukuda, J. Hasegawa, M. Ishida, T. Nakajima, 
 Y. Honda, O. Kitao, H. Nakai, T. Vreven, J. A. Montgomery, Jr., 
 J. E. Peralta, F. Ogliaro, M. Bearpark, J. J. Heyd, E. Brothers, 
 K. N. Kudin, V. N. Staroverov, T. Keith, R. Kobayashi, J. Normand, 
 K. Raghavachari, A. Rendell, J. C. Burant, S. S. Iyengar, J. Tomasi, 
 M. Cossi, N. Rega, J. M. Millam, M. Klene, J. E. Knox, J. B. Cross, 
 V. Bakken, C. Adamo, J. Jaramillo, R. Gomperts, R. E. Stratmann, 
 O. Yazyev, A. J. Austin, R. Cammi, C. Pomelli, J. W. Ochterski, 
 R. L. Martin, K. Morokuma, V. G. Zakrzewski, G. A. Voth, 
 P. Salvador, J. J. Dannenberg, S. Dapprich, A. D. Daniels, 
 O. Farkas, J. B. Foresman, J. V. Ortiz, J. Cioslowski, 
 and D. J. Fox, Gaussian, Inc., Wallingford CT, 2013.
 
 ******************************************
 Gaussian 09:  EM64L-G09RevD.01 24-Apr-2013
                18-Sep-2024 
 ******************************************
 %nproc=24
 Will use up to   24 processors via shared memory.
 %mem=2Gb
 -----------------------------
 #p B3LYP/6-31+g(d,p) opt freq
 -----------------------------
 1/14=-1,18=20,19=15,26=3,38=1/1,3;
 2/9=110,12=2,17=6,18=5,40=1/2;
 3/5=1,6=6,7=111,11=2,16=1,25=1,30=1,71=1,74=-5/1,2,3;
 4//1;
 5/5=2,38=5/2;
 6/7=2,8=2,9=2,10=2,28=1/1;
 7//1,2,3,16;
 1/14=-1,18=20,19=15,26=3/3(2);
 2/9=110/2;
 99//99;
 2/9=110/2;
 3/5=1,6=6,7=111,11=2,16=1,25=1,30=1,71=1,74=-5/1,2,3;
 4/5=5,16=3,69=1/1;
 5/5=2,38=5/2;
 7//1,2,3,16;
 1/14=-1,18=20,19=15,26=3/3(-5);
 2/9=110/2;
 6/7=2,8=2,9=2,10=2,19=2,28=1/1;
 99/9=1/99;
 Leave Link    1 at Wed Sep 18 00:18:16 2024, MaxMem=   268435456 cpu:         0.2
 (Enter /g100_work/pMI24_ChiCa/g09d1/g09d01/d01/build-node-6-2-59348/src/main/l101.exe)
 ---------
 h2o4s gas
 ---------
 Symbolic Z-matrix:
 Charge =  0 Multiplicity = 1
 s
 o                    1    os2
 o                    1    os3      2    oso3
 o                    1    os4      2    oso4     3    dih4     0
 o                    1    os5      3    oso5     2    dih5     0
 h                    2    ho6      1    hos6     5    dih6     0
 h                    3    ho7      1    hos7     4    dih7     0
       Variables:
  os2                   1.66                     
  os3                   1.66                     
  oso3                109.471                    
  os4                   1.51                     
  oso4                110.                       
  dih4                120.                       
  os5                   1.51                     
  oso5                110.                       
  dih5                120.                       
  ho6                   0.95                     
  hos6                109.471                    
  dih6                  0.                       
  ho7                   0.95                     
  hos7                109.471                    
  dih7                  0.                       
 
     3 tetrahedral angles replaced.
 NAtoms=      7 NQM=        7 NQMF=       0 NMMI=      0 NMMIF=      0
                NMic=       0 NMicF=      0.
                    Isotopes and Nuclear Properties:
 (Nuclear quadrupole moments (NQMom) in fm**2, nuclear magnetic moments (NMagM)
  in nuclear magnetons)

  Atom         1           2           3           4           5           6           7
 IAtWgt=          32          16          16          16          16           1           1
 AtmWgt=  31.9720718  15.9949146  15.9949146  15.9949146  15.9949146   1.0078250   1.0078250
 NucSpn=           0           0           0           0           0           1           1
 AtZEff=   0.0000000   0.0000000   0.0000000   0.0000000   0.0000000   0.0000000   0.0000000
 NQMom=    0.0000000   0.0000000   0.0000000   0.0000000   0.0000000   0.0000000   0.0000000
 NMagM=    0.0000000   0.0000000   0.0000000   0.0000000   0.0000000   2.7928460   2.7928460
 AtZNuc=  16.0000000   8.0000000   8.0000000   8.0000000   8.0000000   1.0000000   1.0000000
 Leave Link  101 at Wed Sep 18 00:18:16 2024, MaxMem=   268435456 cpu:         0.2
 (Enter /g100_work/pMI24_ChiCa/g09d1/g09d01/d01/build-node-6-2-59348/src/main/l103.exe)

 GradGradGradGradGradGradGradGradGradGradGradGradGradGradGradGradGradGrad
 Berny optimization.
 Initialization pass.
                           ----------------------------
                           !    Initial Parameters    !
                           ! (Angstroms and Degrees)  !
 --------------------------                            --------------------------
 ! Name  Definition              Value          Derivative Info.                !
 --------------------------------------------------------------------------------
 ! R1    R(1,2)                  1.66           estimate D2E/DX2                !
 ! R2    R(1,3)                  1.66           estimate D2E/DX2                !
 ! R3    R(1,4)                  1.51           estimate D2E/DX2                !
 ! R4    R(1,5)                  1.51           estimate D2E/DX2                !
 ! R5    R(2,6)                  0.95           estimate D2E/DX2                !
 ! R6    R(3,7)                  0.95           estimate D2E/DX2                !
 ! A1    A(2,1,3)              109.4712         estimate D2E/DX2                !
 ! A2    A(2,1,4)              110.0            estimate D2E/DX2                !
 ! A3    A(2,1,5)              109.2062         estimate D2E/DX2                !
 ! A4    A(3,1,4)              109.2062         estimate D2E/DX2                !
 ! A5    A(3,1,5)              110.0            estimate D2E/DX2                !
 ! A6    A(4,1,5)              108.945          estimate D2E/DX2                !
 ! A7    A(1,2,6)              109.4712         estimate D2E/DX2                !
 ! A8    A(1,3,7)              109.4712         estimate D2E/DX2                !
 ! D1    D(3,1,2,6)            120.4849         estimate D2E/DX2                !
 ! D2    D(4,1,2,6)           -119.5151         estimate D2E/DX2                !
 ! D3    D(5,1,2,6)              0.0            estimate D2E/DX2                !
 ! D4    D(2,1,3,7)            120.4849         estimate D2E/DX2                !
 ! D5    D(4,1,3,7)              0.0            estimate D2E/DX2                !
 ! D6    D(5,1,3,7)           -119.5151         estimate D2E/DX2                !
 --------------------------------------------------------------------------------
 Trust Radius=3.00D-01 FncErr=1.00D-07 GrdErr=1.00D-06
 Number of steps in this run=     30 maximum allowed number of steps=    100.
 GradGradGradGradGradGradGradGradGradGradGradGradGradGradGradGradGradGrad

 Leave Link  103 at Wed Sep 18 00:18:17 2024, MaxMem=   268435456 cpu:         0.1
 (Enter /g100_work/pMI24_ChiCa/g09d1/g09d01/d01/build-node-6-2-59348/src/main/l202.exe)
                          Input orientation:                          
 ---------------------------------------------------------------------
 Center     Atomic      Atomic             Coordinates (Angstroms)
 Number     Number       Type             X           Y           Z
 ---------------------------------------------------------------------
      1         16           0        0.000000    0.000000    0.000000
      2          8           0        0.000000    0.000000    1.660000
      3          8           0        1.565063    0.000000   -0.553333
      4          8           0       -0.709468   -1.228834   -0.516450
      5          8           0       -0.723403    1.228834   -0.496743
      6          1           0       -0.454383    0.771854    1.976667
      7          1           0        1.712158   -0.771854   -1.087285
 ---------------------------------------------------------------------
                    Distance matrix (angstroms):
                    1          2          3          4          5
     1  S    0.000000
     2  O    1.660000   0.000000
     3  O    1.660000   2.710769   0.000000
     4  O    1.510000   2.598137   2.585515   0.000000
     5  O    1.510000   2.585515   2.598137   2.457788   0.000000
     6  H    2.170123   0.950000   3.327885   3.206783   2.529616
     7  H    2.170123   3.327885   0.950000   2.529616   3.206783
                    6          7
     6  H    0.000000
     7  H    4.057676   0.000000
 Stoichiometry    H2O4S
 Framework group  C2[C2(S),X(H2O4)]
 Deg. of freedom     8
 Full point group                 C2      NOp   2
 Largest Abelian subgroup         C2      NOp   2
 Largest concise Abelian subgroup C2      NOp   2
                         Standard orientation:                         
 ---------------------------------------------------------------------
 Center     Atomic      Atomic             Coordinates (Angstroms)
 Number     Number       Type             X           Y           Z
 ---------------------------------------------------------------------
      1         16           0        0.000000   -0.000000    0.056713
      2          8           0        0.000000    1.355384   -0.901688
      3          8           0       -0.000000   -1.355384   -0.901688
      4          8           0        1.228834   -0.012068    0.934164
      5          8           0       -1.228834    0.012068    0.934164
      6          1           0       -0.771854    1.876280   -0.713514
      7          1           0        0.771854   -1.876280   -0.713514
 ---------------------------------------------------------------------
 Rotational constants (GHZ):      4.8657460      4.3803304      4.1568306
 Leave Link  202 at Wed Sep 18 00:18:17 2024, MaxMem=   268435456 cpu:         0.2
 (Enter /g100_work/pMI24_ChiCa/g09d1/g09d01/d01/build-node-6-2-59348/src/main/l301.exe)
 Standard basis: 6-31+G(d,p) (6D, 7F)
 Ernie: Thresh=  0.10000D-02 Tol=  0.10000D-05 Strict=F.
 There are    56 symmetry adapted cartesian basis functions of A   symmetry.
 There are    53 symmetry adapted cartesian basis functions of B   symmetry.
 There are    56 symmetry adapted basis functions of A   symmetry.
 There are    53 symmetry adapted basis functions of B   symmetry.
   109 basis functions,   198 primitive gaussians,   109 cartesian basis functions
    25 alpha electrons       25 beta electrons
       nuclear repulsion energy       275.2418850282 Hartrees.
 IExCor=  402 DFT=T Ex+Corr=B3LYP ExCW=0 ScaHFX=  0.200000
 ScaDFX=  0.800000  0.720000  1.000000  0.810000 ScalE2=  1.000000  1.000000
 IRadAn=      0 IRanWt=     -1 IRanGd=            0 ICorTp=0 IEmpDi=  4
 NAtoms=    7 NActive=    7 NUniq=    4 SFac= 3.06D+00 NAtFMM=   60 NAOKFM=F Big=F
 Integral buffers will be    131072 words long.
 Raffenetti 2 integral format.
 Two-electron integral symmetry is turned on.
 Leave Link  301 at Wed Sep 18 00:18:17 2024, MaxMem=   268435456 cpu:         0.1
 (Enter /g100_work/pMI24_ChiCa/g09d1/g09d01/d01/build-node-6-2-59348/src/main/l302.exe)
 NPDir=0 NMtPBC=     1 NCelOv=     1 NCel=       1 NClECP=     1 NCelD=      1
         NCelK=      1 NCelE2=     1 NClLst=     1 CellRange=     0.0.
 One-electron integrals computed using PRISM.
 One-electron integral symmetry used in STVInt
 NBasis=   109 RedAO= T EigKep=  2.16D-03  NBF=    56    53
 NBsUse=   109 1.00D-06 EigRej= -1.00D+00 NBFU=    56    53
 Precomputing XC quadrature grid using
 IXCGrd= 4 IRadAn=           0 IRanWt=          -1 IRanGd=           0 AccXCQ= 0.00D+00.
 Generated NRdTot=       0 NPtTot=           0 NUsed=           0 NTot=          32
 NSgBfM=   109   109   109   109   109 MxSgAt=     7 MxSgA2=     7.
 Leave Link  302 at Wed Sep 18 00:18:17 2024, MaxMem=   268435456 cpu:         1.6
 (Enter /g100_work/pMI24_ChiCa/g09d1/g09d01/d01/build-node-6-2-59348/src/main/l303.exe)
 DipDrv:  MaxL=1.
 Leave Link  303 at Wed Sep 18 00:18:17 2024, MaxMem=   268435456 cpu:         0.2
 (Enter /g100_work/pMI24_ChiCa/g09d1/g09d01/d01/build-node-6-2-59348/src/main/l401.exe)
 ExpMin= 4.05D-02 ExpMax= 2.19D+04 ExpMxC= 3.30D+03 IAcc=2 IRadAn=         4 AccDes= 0.00D+00
 Harris functional with IExCor=  402 and IRadAn=       4 diagonalized for initial guess.
 HarFok:  IExCor=  402 AccDes= 0.00D+00 IRadAn=         4 IDoV= 1 UseB2=F ITyADJ=14
 ICtDFT=  3500011 ScaDFX=  1.000000  1.000000  1.000000  1.000000
 FoFCou: FMM=F IPFlag=           0 FMFlag=      100000 FMFlg1=           0
         NFxFlg=           0 DoJE=T BraDBF=F KetDBF=T FulRan=T
         wScrn=  0.000000 ICntrl=     500 IOpCl=  0 I1Cent=   200000004 NGrid=           0
         NMat0=    1 NMatS0=      1 NMatT0=    0 NMatD0=    1 NMtDS0=    0 NMtDT0=    0
 Petite list used in FoFCou.
 Harris En= -700.304348574860    
 JPrj=0 DoOrth=F DoCkMO=F.
 Initial guess orbital symmetries:
       Occupied  (A) (A) (B) (A) (B) (A) (B) (A) (B) (A) (B) (A)
                 (B) (A) (B) (A) (B) (B) (A) (A) (B) (A) (B) (A)
                 (B)
       Virtual   (A) (B) (A) (B) (A) (B) (B) (A) (A) (B) (A) (B)
                 (A) (B) (A) (B) (A) (B) (A) (B) (A) (B) (B) (A)
                 (A) (B) (B) (A) (A) (B) (A) (A) (B) (A) (B) (A)
                 (B) (A) (A) (B) (B) (A) (B) (A) (A) (B) (B) (A)
                 (B) (A) (B) (B) (B) (A) (A) (B) (B) (A) (A) (A)
                 (B) (B) (A) (B) (A) (B) (A) (B) (A) (A) (B) (B)
                 (A) (B) (A) (A) (B) (B) (A) (B) (A) (B) (A) (A)
 The electronic state of the initial guess is 1-A.
 Leave Link  401 at Wed Sep 18 00:18:17 2024, MaxMem=   268435456 cpu:         1.7
 (Enter /g100_work/pMI24_ChiCa/g09d1/g09d01/d01/build-node-6-2-59348/src/main/l502.exe)
 Closed shell SCF:
 Using DIIS extrapolation, IDIIS=  1040.
 Integral symmetry usage will be decided dynamically.
 Keep R1 ints in memory in symmetry-blocked form, NReq=27032647.
 IVT=       57763 IEndB=       57763 NGot=   268435456 MDV=   259375929
 LenX=   259375929 LenY=   259363607
 Requested convergence on RMS density matrix=1.00D-08 within 128 cycles.
 Requested convergence on MAX density matrix=1.00D-06.
 Requested convergence on             energy=1.00D-06.
 No special actions if energy rises.
 FoFCou: FMM=F IPFlag=           0 FMFlag=           0 FMFlg1=           0
         NFxFlg=           0 DoJE=F BraDBF=F KetDBF=F FulRan=T
         wScrn=  0.000000 ICntrl=     600 IOpCl=  0 I1Cent=           0 NGrid=           0
         NMat0=    1 NMatS0=   5995 NMatT0=    0 NMatD0=    1 NMtDS0=    0 NMtDT0=    0
 Petite list used in FoFCou.

 Cycle   1  Pass 1  IDiag  1:
 E= -699.845122395638    
 DIIS: error= 3.96D-02 at cycle   1 NSaved=   1.
 NSaved= 1 IEnMin= 1 EnMin= -699.845122395638     IErMin= 1 ErrMin= 3.96D-02
 ErrMax= 3.96D-02  0.00D+00 EMaxC= 1.00D-01 BMatC= 4.69D-01 BMatP= 4.69D-01
 IDIUse=3 WtCom= 6.04D-01 WtEn= 3.96D-01
 Coeff-Com:  0.100D+01
 Coeff-En:   0.100D+01
 Coeff:      0.100D+01
 Gap=     0.047 Goal=   None    Shift=    0.000
 GapD=    0.047 DampG=0.250 DampE=0.500 DampFc=0.2500 IDamp=-1.
 Damping current iteration by 2.50D-01
 RMSDP=2.07D-02 MaxDP=7.60D-01              OVMax= 3.53D-01

 Cycle   2  Pass 1  IDiag  1:
 E= -699.962391400318     Delta-E=       -0.117269004680 Rises=F Damp=T
 DIIS: error= 1.49D-02 at cycle   2 NSaved=   2.
 NSaved= 2 IEnMin= 2 EnMin= -699.962391400318     IErMin= 2 ErrMin= 1.49D-02
 ErrMax= 1.49D-02  0.00D+00 EMaxC= 1.00D-01 BMatC= 4.74D-02 BMatP= 4.69D-01
 IDIUse=3 WtCom= 8.51D-01 WtEn= 1.49D-01
 Coeff-Com: -0.319D+00 0.132D+01
 Coeff-En:   0.943D-01 0.906D+00
 Coeff:     -0.258D+00 0.126D+01
 Gap=     0.232 Goal=   None    Shift=    0.000
 RMSDP=3.47D-03 MaxDP=5.97D-02 DE=-1.17D-01 OVMax= 2.58D-01

 Cycle   3  Pass 1  IDiag  1:
 E= -700.143199335257     Delta-E=       -0.180807934938 Rises=F Damp=F
 DIIS: error= 2.21D-02 at cycle   3 NSaved=   3.
 NSaved= 3 IEnMin= 3 EnMin= -700.143199335257     IErMin= 2 ErrMin= 1.49D-02
 ErrMax= 2.21D-02  0.00D+00 EMaxC= 1.00D-01 BMatC= 7.81D-02 BMatP= 4.74D-02
 IDIUse=2 WtCom= 0.00D+00 WtEn= 1.00D+00
 Coeff-En:   0.000D+00 0.000D+00 0.100D+01
 Coeff:      0.000D+00 0.000D+00 0.100D+01
 Gap=     0.202 Goal=   None    Shift=    0.000
 RMSDP=8.26D-03 MaxDP=1.12D-01 DE=-1.81D-01 OVMax= 2.34D-01

 Cycle   4  Pass 1  IDiag  1:
 E= -699.863862568834     Delta-E=        0.279336766423 Rises=F Damp=F
 DIIS: error= 4.93D-02 at cycle   4 NSaved=   4.
 NSaved= 4 IEnMin= 3 EnMin= -700.143199335257     IErMin= 2 ErrMin= 1.49D-02
 ErrMax= 4.93D-02  0.00D+00 EMaxC= 1.00D-01 BMatC= 4.41D-01 BMatP= 4.74D-02
 IDIUse=2 WtCom= 0.00D+00 WtEn= 1.00D+00
 Coeff-En:   0.000D+00 0.000D+00 0.791D+00 0.209D+00
 Coeff:      0.000D+00 0.000D+00 0.791D+00 0.209D+00
 Gap=     0.201 Goal=   None    Shift=    0.000
 RMSDP=4.80D-03 MaxDP=8.10D-02 DE= 2.79D-01 OVMax= 1.51D-01

 Cycle   5  Pass 1  IDiag  1:
 E= -700.179028230757     Delta-E=       -0.315165661924 Rises=F Damp=F
 DIIS: error= 1.47D-02 at cycle   5 NSaved=   5.
 NSaved= 5 IEnMin= 5 EnMin= -700.179028230757     IErMin= 5 ErrMin= 1.47D-02
 ErrMax= 1.47D-02  0.00D+00 EMaxC= 1.00D-01 BMatC= 3.42D-02 BMatP= 4.74D-02
 IDIUse=3 WtCom= 8.53D-01 WtEn= 1.47D-01
 Coeff-Com: -0.845D-01 0.126D+00 0.298D+00-0.105D+00 0.766D+00
 Coeff-En:   0.000D+00 0.000D+00 0.341D+00 0.000D+00 0.659D+00
 Coeff:     -0.721D-01 0.107D+00 0.304D+00-0.892D-01 0.750D+00
 Gap=     0.233 Goal=   None    Shift=    0.000
 RMSDP=1.52D-03 MaxDP=2.64D-02 DE=-3.15D-01 OVMax= 4.43D-02

 Cycle   6  Pass 1  IDiag  1:
 E= -700.204854577468     Delta-E=       -0.025826346711 Rises=F Damp=F
 DIIS: error= 6.58D-04 at cycle   6 NSaved=   6.
 NSaved= 6 IEnMin= 6 EnMin= -700.204854577468     IErMin= 6 ErrMin= 6.58D-04
 ErrMax= 6.58D-04  0.00D+00 EMaxC= 1.00D-01 BMatC= 7.14D-05 BMatP= 3.42D-02
 IDIUse=3 WtCom= 9.93D-01 WtEn= 6.58D-03
 Coeff-Com: -0.127D-01 0.148D-01 0.264D-01-0.157D-01 0.128D+00 0.860D+00
 Coeff-En:   0.000D+00 0.000D+00 0.000D+00 0.000D+00 0.000D+00 0.100D+01
 Coeff:     -0.126D-01 0.147D-01 0.262D-01-0.156D-01 0.127D+00 0.860D+00
 Gap=     0.233 Goal=   None    Shift=    0.000
 RMSDP=6.33D-05 MaxDP=1.16D-03 DE=-2.58D-02 OVMax= 1.72D-03

 Cycle   7  Pass 1  IDiag  1:
 E= -700.204907008475     Delta-E=       -0.000052431007 Rises=F Damp=F
 DIIS: error= 7.15D-05 at cycle   7 NSaved=   7.
 NSaved= 7 IEnMin= 7 EnMin= -700.204907008475     IErMin= 7 ErrMin= 7.15D-05
 ErrMax= 7.15D-05  0.00D+00 EMaxC= 1.00D-01 BMatC= 1.45D-06 BMatP= 7.14D-05
 IDIUse=1 WtCom= 1.00D+00 WtEn= 0.00D+00
 Coeff-Com: -0.134D-02 0.760D-03-0.712D-02 0.258D-03 0.115D-02 0.261D+00
 Coeff-Com:  0.746D+00
 Coeff:     -0.134D-02 0.760D-03-0.712D-02 0.258D-03 0.115D-02 0.261D+00
 Coeff:      0.746D+00
 Gap=     0.232 Goal=   None    Shift=    0.000
 RMSDP=1.19D-05 MaxDP=4.29D-04 DE=-5.24D-05 OVMax= 2.63D-04

 Cycle   8  Pass 1  IDiag  1:
 E= -700.204908167168     Delta-E=       -0.000001158693 Rises=F Damp=F
 DIIS: error= 2.17D-05 at cycle   8 NSaved=   8.
 NSaved= 8 IEnMin= 8 EnMin= -700.204908167168     IErMin= 8 ErrMin= 2.17D-05
 ErrMax= 2.17D-05  0.00D+00 EMaxC= 1.00D-01 BMatC= 1.00D-07 BMatP= 1.45D-06
 IDIUse=1 WtCom= 1.00D+00 WtEn= 0.00D+00
 Coeff-Com: -0.627D-03 0.657D-03-0.271D-02 0.217D-03-0.938D-03 0.653D-01
 Coeff-Com:  0.237D+00 0.701D+00
 Coeff:     -0.627D-03 0.657D-03-0.271D-02 0.217D-03-0.938D-03 0.653D-01
 Coeff:      0.237D+00 0.701D+00
 Gap=     0.232 Goal=   None    Shift=    0.000
 RMSDP=2.85D-06 MaxDP=4.21D-05 DE=-1.16D-06 OVMax= 6.74D-05

 Cycle   9  Pass 1  IDiag  1:
 E= -700.204908241784     Delta-E=       -0.000000074616 Rises=F Damp=F
 DIIS: error= 7.34D-06 at cycle   9 NSaved=   9.
 NSaved= 9 IEnMin= 9 EnMin= -700.204908241784     IErMin= 9 ErrMin= 7.34D-06
 ErrMax= 7.34D-06  0.00D+00 EMaxC= 1.00D-01 BMatC= 1.28D-08 BMatP= 1.00D-07
 IDIUse=1 WtCom= 1.00D+00 WtEn= 0.00D+00
 Coeff-Com: -0.621D-04 0.931D-04-0.633D-03 0.192D-03-0.152D-02-0.870D-02
 Coeff-Com: -0.586D-02 0.250D+00 0.767D+00
 Coeff:     -0.621D-04 0.931D-04-0.633D-03 0.192D-03-0.152D-02-0.870D-02
 Coeff:     -0.586D-02 0.250D+00 0.767D+00
 Gap=     0.232 Goal=   None    Shift=    0.000
 RMSDP=1.20D-06 MaxDP=4.74D-05 DE=-7.46D-08 OVMax= 2.75D-05

 Cycle  10  Pass 1  IDiag  1:
 E= -700.204908253058     Delta-E=       -0.000000011273 Rises=F Damp=F
 DIIS: error= 4.29D-07 at cycle  10 NSaved=  10.
 NSaved=10 IEnMin=10 EnMin= -700.204908253058     IErMin=10 ErrMin= 4.29D-07
 ErrMax= 4.29D-07  0.00D+00 EMaxC= 1.00D-01 BMatC= 4.22D-11 BMatP= 1.28D-08
 IDIUse=1 WtCom= 1.00D+00 WtEn= 0.00D+00
 Coeff-Com:  0.399D-05-0.211D-05 0.146D-04 0.820D-05-0.768D-04-0.193D-02
 Coeff-Com: -0.744D-02-0.344D-02 0.608D-01 0.952D+00
 Coeff:      0.399D-05-0.211D-05 0.146D-04 0.820D-05-0.768D-04-0.193D-02
 Coeff:     -0.744D-02-0.344D-02 0.608D-01 0.952D+00
 Gap=     0.232 Goal=   None    Shift=    0.000
 RMSDP=8.73D-08 MaxDP=1.45D-06 DE=-1.13D-08 OVMax= 2.26D-06

 Cycle  11  Pass 1  IDiag  1:
 E= -700.204908253102     Delta-E=       -0.000000000045 Rises=F Damp=F
 DIIS: error= 7.45D-08 at cycle  11 NSaved=  11.
 NSaved=11 IEnMin=11 EnMin= -700.204908253102     IErMin=11 ErrMin= 7.45D-08
 ErrMax= 7.45D-08  0.00D+00 EMaxC= 1.00D-01 BMatC= 1.27D-12 BMatP= 4.22D-11
 IDIUse=1 WtCom= 1.00D+00 WtEn= 0.00D+00
 Coeff-Com:  0.154D-05-0.134D-05 0.146D-04-0.330D-05 0.202D-04-0.758D-04
 Coeff-Com: -0.991D-03-0.591D-02-0.204D-02 0.160D+00 0.849D+00
 Coeff:      0.154D-05-0.134D-05 0.146D-04-0.330D-05 0.202D-04-0.758D-04
 Coeff:     -0.991D-03-0.591D-02-0.204D-02 0.160D+00 0.849D+00
 Gap=     0.232 Goal=   None    Shift=    0.000
 RMSDP=1.31D-08 MaxDP=1.50D-07 DE=-4.46D-11 OVMax= 3.23D-07

 Cycle  12  Pass 1  IDiag  1:
 E= -700.204908253089     Delta-E=        0.000000000013 Rises=F Damp=F
 DIIS: error= 1.20D-08 at cycle  12 NSaved=  12.
 NSaved=12 IEnMin=11 EnMin= -700.204908253102     IErMin=12 ErrMin= 1.20D-08
 ErrMax= 1.20D-08  0.00D+00 EMaxC= 1.00D-01 BMatC= 3.40D-14 BMatP= 1.27D-12
 IDIUse=1 WtCom= 1.00D+00 WtEn= 0.00D+00
 Coeff-Com:  0.342D-06-0.531D-06 0.114D-05-0.386D-06 0.343D-05 0.388D-04
 Coeff-Com:  0.112D-03-0.393D-03-0.152D-02-0.160D-01 0.298D-01 0.988D+00
 Coeff:      0.342D-06-0.531D-06 0.114D-05-0.386D-06 0.343D-05 0.388D-04
 Coeff:      0.112D-03-0.393D-03-0.152D-02-0.160D-01 0.298D-01 0.988D+00
 Gap=     0.232 Goal=   None    Shift=    0.000
 RMSDP=2.92D-09 MaxDP=4.52D-08 DE= 1.32D-11 OVMax= 7.30D-08

 SCF Done:  E(RB3LYP) =  -700.204908253     A.U. after   12 cycles
            NFock= 12  Conv=0.29D-08     -V/T= 2.0066
 KE= 6.956226063227D+02 PE=-2.205469129775D+03 EE= 5.343997301715D+02
 Leave Link  502 at Wed Sep 18 00:18:18 2024, MaxMem=   268435456 cpu:        12.1
 (Enter /g100_work/pMI24_ChiCa/g09d1/g09d01/d01/build-node-6-2-59348/src/main/l601.exe)
 Copying SCF densities to generalized density rwf, IOpCl= 0 IROHF=0.

 **********************************************************************

            Population analysis using the SCF density.

 **********************************************************************

 Orbital symmetries:
       Occupied  (A) (B) (A) (B) (A) (A) (B) (A) (B) (A) (B) (A)
                 (B) (A) (B) (A) (B) (A) (B) (A) (B) (A) (B) (A)
                 (B)
       Virtual   (A) (B) (A) (B) (B) (A) (B) (A) (A) (B) (A) (B)
                 (B) (A) (A) (B) (A) (B) (A) (B) (A) (B) (A) (B)
                 (A) (B) (B) (A) (A) (B) (A) (A) (B) (B) (A) (A)
                 (B) (A) (B) (A) (B) (A) (A) (B) (A) (B) (B) (A)
                 (B) (A) (B) (B) (B) (A) (A) (B) (A) (B) (A) (A)
                 (B) (B) (A) (B) (A) (B) (A) (B) (A) (A) (B) (B)
                 (A) (B) (A) (A) (B) (B) (A) (A) (B) (A) (B) (A)
 The electronic state is 1-A.
 Alpha  occ. eigenvalues --  -89.20915 -19.26777 -19.26777 -19.19191 -19.19191
 Alpha  occ. eigenvalues --   -8.22576  -6.19159  -6.19102  -6.18853  -1.19138
 Alpha  occ. eigenvalues --   -1.11260  -1.06774  -1.01770  -0.74531  -0.63778
 Alpha  occ. eigenvalues --   -0.55983  -0.53228  -0.48634  -0.47541  -0.43270
 Alpha  occ. eigenvalues --   -0.41268  -0.38322  -0.36063  -0.33935  -0.31914
 Alpha virt. eigenvalues --   -0.08682  -0.00339   0.00235   0.02124   0.03466
 Alpha virt. eigenvalues --    0.04291   0.05934   0.08340   0.11401   0.13907
 Alpha virt. eigenvalues --    0.14064   0.15541   0.17096   0.17534   0.18862
 Alpha virt. eigenvalues --    0.21679   0.23281   0.24455   0.24474   0.26997
 Alpha virt. eigenvalues --    0.28222   0.28420   0.29774   0.29846   0.29860
 Alpha virt. eigenvalues --    0.35042   0.49697   0.52097   0.54820   0.56576
 Alpha virt. eigenvalues --    0.58528   0.71408   0.89203   0.91205   0.93538
 Alpha virt. eigenvalues --    0.98472   1.05584   1.10947   1.11423   1.13108
 Alpha virt. eigenvalues --    1.14490   1.15600   1.20146   1.21428   1.22961
 Alpha virt. eigenvalues --    1.23716   1.27084   1.29787   1.31756   1.42715
 Alpha virt. eigenvalues --    1.44480   1.48049   1.52180   1.52575   1.61179
 Alpha virt. eigenvalues --    1.62948   1.69573   1.70746   1.77659   1.78355
 Alpha virt. eigenvalues --    1.80360   1.81813   1.92909   1.94742   2.04034
 Alpha virt. eigenvalues --    2.12629   2.14960   2.28331   2.31985   2.39727
 Alpha virt. eigenvalues --    2.51151   2.57781   2.59199   2.62867   2.65906
 Alpha virt. eigenvalues --    2.72468   2.81267   3.38227   3.40810   3.96529
 Alpha virt. eigenvalues --    3.98737   4.03393   4.07891   4.14190
          Condensed to atoms (all electrons):
               1          2          3          4          5          6
     1  S   13.915094  -0.016422  -0.016422   0.275177   0.275177   0.025166
     2  O   -0.016422   8.537066  -0.032119  -0.062399  -0.099221   0.232854
     3  O   -0.016422  -0.032119   8.537066  -0.099221  -0.062399  -0.000355
     4  O    0.275177  -0.062399  -0.099221   8.603634  -0.122563   0.000786
     5  O    0.275177  -0.099221  -0.062399  -0.122563   8.603634   0.004860
     6  H    0.025166   0.232854  -0.000355   0.000786   0.004860   0.335558
     7  H    0.025166  -0.000355   0.232854   0.004860   0.000786  -0.000011
               7
     1  S    0.025166
     2  O   -0.000355
     3  O    0.232854
     4  O    0.004860
     5  O    0.000786
     6  H   -0.000011
     7  H    0.335558
 Mulliken charges:
               1
     1  S    1.517065
     2  O   -0.559403
     3  O   -0.559403
     4  O   -0.600273
     5  O   -0.600273
     6  H    0.401143
     7  H    0.401143
 Sum of Mulliken charges =  -0.00000
 Mulliken charges with hydrogens summed into heavy atoms:
               1
     1  S    1.517065
     2  O   -0.158260
     3  O   -0.158260
     4  O   -0.600273
     5  O   -0.600273
 Electronic spatial extent (au):  <R**2>=            399.6710
 Charge=             -0.0000 electrons
 Dipole moment (field-independent basis, Debye):
    X=             -0.0000    Y=             -0.0000    Z=             -2.6520  Tot=              2.6520
 Quadrupole moment (field-independent basis, Debye-Ang):
   XX=            -38.7290   YY=            -27.6174   ZZ=            -39.7566
   XY=             -6.4496   XZ=              0.0000   YZ=              0.0000
 Traceless Quadrupole moment (field-independent basis, Debye-Ang):
   XX=             -3.3613   YY=              7.7502   ZZ=             -4.3889
   XY=             -6.4496   XZ=              0.0000   YZ=              0.0000
 Octapole moment (field-independent basis, Debye-Ang**2):
  XXX=             -0.0000  YYY=             -0.0000  ZZZ=             -1.3041  XYY=              0.0000
  XXY=              0.0000  XXZ=             -8.0602  XZZ=             -0.0000  YZZ=              0.0000
  YYZ=             -4.1456  XYZ=              4.8292
 Hexadecapole moment (field-independent basis, Debye-Ang**3):
 XXXX=           -151.2394 YYYY=           -129.9242 ZZZZ=           -158.5168 XXXY=             -0.4336
 XXXZ=             -0.0000 YYYX=            -22.3325 YYYZ=              0.0000 ZZZX=             -0.0000
 ZZZY=              0.0000 XXYY=            -43.3761 XXZZ=            -50.6581 YYZZ=            -53.4742
 XXYZ=              0.0000 YYXZ=             -0.0000 ZZXY=             -1.9174
 N-N= 2.752418850282D+02 E-N=-2.205469128864D+03  KE= 6.956226063227D+02
 Symmetry A    KE= 4.697525639404D+02
 Symmetry B    KE= 2.258700423824D+02
 No NMR shielding tensors so no spin-rotation constants.
 Leave Link  601 at Wed Sep 18 00:18:19 2024, MaxMem=   268435456 cpu:         1.6
 (Enter /g100_work/pMI24_ChiCa/g09d1/g09d01/d01/build-node-6-2-59348/src/main/l701.exe)
 Compute integral first derivatives.
 ... and contract with generalized density number  0.
 Leave Link  701 at Wed Sep 18 00:18:19 2024, MaxMem=   268435456 cpu:         1.6
 (Enter /g100_work/pMI24_ChiCa/g09d1/g09d01/d01/build-node-6-2-59348/src/main/l702.exe)
 L702 exits ... SP integral derivatives will be done elsewhere.
 Leave Link  702 at Wed Sep 18 00:18:19 2024, MaxMem=   268435456 cpu:         0.1
 (Enter /g100_work/pMI24_ChiCa/g09d1/g09d01/d01/build-node-6-2-59348/src/main/l703.exe)
 Compute integral first derivatives, UseDBF=F ICtDFT=           0.
 Integral derivatives from FoFJK, PRISM(SPDF).
 Calling FoFJK, ICntrl=      2127 FMM=F ISym2X=1 I1Cent= 0 IOpClX= 0 NMat=1 NMatS=1 NMatT=0.
 FoFJK:  IHMeth= 1 ICntrl=    2127 DoSepK=F KAlg= 0 I1Cent=   0 FoldK=F
 IRaf=         0 NMat=   1 IRICut=       1 DoRegI=T DoRafI=F ISym2E= 1.
 FoFCou: FMM=F IPFlag=           0 FMFlag=      100000 FMFlg1=         800
         NFxFlg=           0 DoJE=F BraDBF=F KetDBF=F FulRan=T
         wScrn=  0.000000 ICntrl=    2127 IOpCl=  0 I1Cent=           0 NGrid=           0
         NMat0=    1 NMatS0=      1 NMatT0=    0 NMatD0=    1 NMtDS0=    0 NMtDT0=    0
 Petite list used in FoFCou.
 Leave Link  703 at Wed Sep 18 00:18:19 2024, MaxMem=   268435456 cpu:         5.2
 (Enter /g100_work/pMI24_ChiCa/g09d1/g09d01/d01/build-node-6-2-59348/src/main/l716.exe)
 Dipole        =-8.88178420D-16-3.10862447D-15-1.04337763D+00
 ***** Axes restored to original set *****
 -------------------------------------------------------------------
 Center     Atomic                   Forces (Hartrees/Bohr)
 Number     Number              X              Y              Z
 -------------------------------------------------------------------
      1       16          -0.092413226    0.000000000   -0.065346019
      2        8           0.031761952   -0.027858049   -0.027026530
      3        8          -0.014893540    0.027858049    0.038954299
      4        8           0.044941873    0.022560589    0.030705322
      5        8           0.043929879   -0.022560589    0.032136497
      6        1          -0.011749145    0.024485195    0.002480448
      7        1          -0.001577793   -0.024485195   -0.011904016
 -------------------------------------------------------------------
 Cartesian Forces:  Max     0.092413226 RMS     0.035369839
 Leave Link  716 at Wed Sep 18 00:18:20 2024, MaxMem=   268435456 cpu:         0.1
 (Enter /g100_work/pMI24_ChiCa/g09d1/g09d01/d01/build-node-6-2-59348/src/main/l103.exe)

 GradGradGradGradGradGradGradGradGradGradGradGradGradGradGradGradGradGrad
 Berny optimization.
 FormGI is forming the generalized inverse of G from B-inverse, IUseBI=4.
 Internal  Forces:  Max     0.049977367 RMS     0.026490938
 Search for a local minimum.
 Step number   1 out of a maximum of   30
 All quantities printed in internal units (Hartrees-Bohrs-Radians)
 RMS Force = .26491D-01 SwitMx=.10000D-02 MixMth= 1
 Mixed Optimization -- RFO/linear search
 Second derivative matrix not updated -- first step.
 The second derivative matrix:
                          R1        R2        R3        R4        R5
           R1           0.41169
           R2           0.00000   0.41169
           R3           0.00000   0.00000   0.73458
           R4           0.00000   0.00000   0.00000   0.73458
           R5           0.00000   0.00000   0.00000   0.00000   0.57681
           R6           0.00000   0.00000   0.00000   0.00000   0.00000
           A1           0.00000   0.00000   0.00000   0.00000   0.00000
           A2           0.00000   0.00000   0.00000   0.00000   0.00000
           A3           0.00000   0.00000   0.00000   0.00000   0.00000
           A4           0.00000   0.00000   0.00000   0.00000   0.00000
           A5           0.00000   0.00000   0.00000   0.00000   0.00000
           A6           0.00000   0.00000   0.00000   0.00000   0.00000
           A7           0.00000   0.00000   0.00000   0.00000   0.00000
           A8           0.00000   0.00000   0.00000   0.00000   0.00000
           D1           0.00000   0.00000   0.00000   0.00000   0.00000
           D2           0.00000   0.00000   0.00000   0.00000   0.00000
           D3           0.00000   0.00000   0.00000   0.00000   0.00000
           D4           0.00000   0.00000   0.00000   0.00000   0.00000
           D5           0.00000   0.00000   0.00000   0.00000   0.00000
           D6           0.00000   0.00000   0.00000   0.00000   0.00000
                          R6        A1        A2        A3        A4
           R6           0.57681
           A1           0.00000   0.25000
           A2           0.00000   0.00000   0.25000
           A3           0.00000   0.00000   0.00000   0.25000
           A4           0.00000   0.00000   0.00000   0.00000   0.25000
           A5           0.00000   0.00000   0.00000   0.00000   0.00000
           A6           0.00000   0.00000   0.00000   0.00000   0.00000
           A7           0.00000   0.00000   0.00000   0.00000   0.00000
           A8           0.00000   0.00000   0.00000   0.00000   0.00000
           D1           0.00000   0.00000   0.00000   0.00000   0.00000
           D2           0.00000   0.00000   0.00000   0.00000   0.00000
           D3           0.00000   0.00000   0.00000   0.00000   0.00000
           D4           0.00000   0.00000   0.00000   0.00000   0.00000
           D5           0.00000   0.00000   0.00000   0.00000   0.00000
           D6           0.00000   0.00000   0.00000   0.00000   0.00000
                          A5        A6        A7        A8        D1
           A5           0.25000
           A6           0.00000   0.25000
           A7           0.00000   0.00000   0.16000
           A8           0.00000   0.00000   0.00000   0.16000
           D1           0.00000   0.00000   0.00000   0.00000   0.01825
           D2           0.00000   0.00000   0.00000   0.00000   0.00000
           D3           0.00000   0.00000   0.00000   0.00000   0.00000
           D4           0.00000   0.00000   0.00000   0.00000   0.00000
           D5           0.00000   0.00000   0.00000   0.00000   0.00000
           D6           0.00000   0.00000   0.00000   0.00000   0.00000
                          D2        D3        D4        D5        D6
           D2           0.01825
           D3           0.00000   0.01825
           D4           0.00000   0.00000   0.01825
           D5           0.00000   0.00000   0.00000   0.01825
           D6           0.00000   0.00000   0.00000   0.00000   0.01825
 ITU=  0
     Eigenvalues ---    0.01825   0.01825   0.12684   0.14154   0.16000
     Eigenvalues ---    0.16000   0.18702   0.22436   0.25000   0.41169
     Eigenvalues ---    0.41169   0.57681   0.57681   0.73458   0.73458
 RFO step:  Lambda=-4.48376489D-02 EMin= 1.82525757D-02
 Linear search not attempted -- first point.
 Maximum step size (   0.300) exceeded in Quadratic search.
    -- Step size scaled by   0.875
 Iteration  1 RMS(Cart)=  0.10754276 RMS(Int)=  0.00749704
 Iteration  2 RMS(Cart)=  0.00798304 RMS(Int)=  0.00380977
 Iteration  3 RMS(Cart)=  0.00001034 RMS(Int)=  0.00380976
 Iteration  4 RMS(Cart)=  0.00000002 RMS(Int)=  0.00380976
 ITry= 1 IFail=0 DXMaxC= 1.73D-01 DCOld= 1.00D+10 DXMaxT= 3.00D-01 DXLimC= 3.00D+00 Rises=F
 ClnCor:  largest displacement from symmetrization is 7.21D-14 for atom     5.
 Variable       Old X    -DE/DX   Delta X   Delta X   Delta X     New X
                                 (Linear)    (Quad)   (Total)
    R1        3.13695  -0.02454   0.00000  -0.04705  -0.04705   3.08989
    R2        3.13695  -0.02454   0.00000  -0.04705  -0.04705   3.08989
    R3        2.85349  -0.04998   0.00000  -0.05612  -0.05612   2.79736
    R4        2.85349  -0.04998   0.00000  -0.05612  -0.05612   2.79736
    R5        1.79524   0.02633   0.00000   0.03708   0.03708   1.83232
    R6        1.79524   0.02633   0.00000   0.03708   0.03708   1.83232
    A1        1.91063  -0.04192   0.00000  -0.16577  -0.17320   1.73743
    A2        1.91986   0.00106   0.00000  -0.00680  -0.01374   1.90612
    A3        1.90601  -0.00081   0.00000  -0.01285  -0.01956   1.88644
    A4        1.90601  -0.00081   0.00000  -0.01285  -0.01956   1.88644
    A5        1.91986   0.00106   0.00000  -0.00680  -0.01374   1.90612
    A6        1.90145   0.04183   0.00000   0.20681   0.20419   2.10564
    A7        1.91063  -0.01199   0.00000  -0.05122  -0.05122   1.85942
    A8        1.91063  -0.01199   0.00000  -0.05122  -0.05122   1.85942
    D1        2.10286  -0.00074   0.00000  -0.01600  -0.01566   2.08720
    D2       -2.08593  -0.02726   0.00000  -0.13953  -0.13649  -2.22242
    D3       -0.00000   0.02412   0.00000   0.10175   0.09836   0.09836
    D4        2.10286  -0.00074   0.00000  -0.01600  -0.01566   2.08720
    D5       -0.00000   0.02412   0.00000   0.10175   0.09836   0.09836
    D6       -2.08593  -0.02726   0.00000  -0.13953  -0.13649  -2.22242
         Item               Value     Threshold  Converged?
 Maximum Force            0.049977     0.000450     NO 
 RMS     Force            0.026491     0.000300     NO 
 Maximum Displacement     0.173252     0.001800     NO 
 RMS     Displacement     0.110979     0.001200     NO 
 Predicted change in Energy=-2.504869D-02
 Lowest energy point so far.  Saving SCF results.
 GradGradGradGradGradGradGradGradGradGradGradGradGradGradGradGradGradGrad

 Leave Link  103 at Wed Sep 18 00:18:20 2024, MaxMem=   268435456 cpu:         1.5
 (Enter /g100_work/pMI24_ChiCa/g09d1/g09d01/d01/build-node-6-2-59348/src/main/l202.exe)
                          Input orientation:                          
 ---------------------------------------------------------------------
 Center     Atomic      Atomic             Coordinates (Angstroms)
 Number     Number       Type             X           Y           Z
 ---------------------------------------------------------------------
      1         16           0       -0.082965   -0.000000   -0.058665
      2          8           0        0.058626   -0.026779    1.570073
      3          8           0        1.499821    0.026779   -0.468084
      4          8           0       -0.655042   -1.285310   -0.519098
      5          8           0       -0.707758    1.285310   -0.444546
      6          1           0       -0.384678    0.770465    1.898780
      7          1           0        1.661961   -0.770465   -0.995604
 ---------------------------------------------------------------------
                    Distance matrix (angstroms):
                    1          2          3          4          5
     1  S    0.000000
     2  O    1.635101   0.000000
     3  O    1.635101   2.496798   0.000000
     4  O    1.480302   2.541232   2.523413   0.000000
     5  O    1.480302   2.523413   2.541232   2.572241   0.000000
     6  H    2.125144   0.969621   3.115518   3.185191   2.420873
     7  H    2.125144   3.115518   0.969621   2.420873   3.185191
                    6          7
     6  H    0.000000
     7  H    3.865314   0.000000
 Stoichiometry    H2O4S
 Framework group  C2[C2(S),X(H2O4)]
 Deg. of freedom     8
 Full point group                 C2      NOp   2
 RotChk:  IX=0 Diff= 3.03D-02
 Largest Abelian subgroup         C2      NOp   2
 Largest concise Abelian subgroup C2      NOp   2
                         Standard orientation:                         
 ---------------------------------------------------------------------
 Center     Atomic      Atomic             Coordinates (Angstroms)
 Number     Number       Type             X           Y           Z
 ---------------------------------------------------------------------
      1         16           0        0.000000   -0.000000    0.138721
      2          8           0        0.000000    1.248399   -0.917240
      3          8           0       -0.000000   -1.248399   -0.917240
      4          8           0        1.285994   -0.018072    0.871651
      5          8           0       -1.285994    0.018072    0.871651
      6          1           0       -0.808308    1.755506   -0.745063
      7          1           0        0.808308   -1.755506   -0.745063
 ---------------------------------------------------------------------
 Rotational constants (GHZ):      4.8426782      4.5818793      4.5202962
 Leave Link  202 at Wed Sep 18 00:18:20 2024, MaxMem=   268435456 cpu:         0.1
 (Enter /g100_work/pMI24_ChiCa/g09d1/g09d01/d01/build-node-6-2-59348/src/main/l301.exe)
 Standard basis: 6-31+G(d,p) (6D, 7F)
 Ernie: Thresh=  0.10000D-02 Tol=  0.10000D-05 Strict=F.
 There are    56 symmetry adapted cartesian basis functions of A   symmetry.
 There are    53 symmetry adapted cartesian basis functions of B   symmetry.
 There are    56 symmetry adapted basis functions of A   symmetry.
 There are    53 symmetry adapted basis functions of B   symmetry.
   109 basis functions,   198 primitive gaussians,   109 cartesian basis functions
    25 alpha electrons       25 beta electrons
       nuclear repulsion energy       280.3035438556 Hartrees.
 IExCor=  402 DFT=T Ex+Corr=B3LYP ExCW=0 ScaHFX=  0.200000
 ScaDFX=  0.800000  0.720000  1.000000  0.810000 ScalE2=  1.000000  1.000000
 IRadAn=      0 IRanWt=     -1 IRanGd=            0 ICorTp=0 IEmpDi=  4
 NAtoms=    7 NActive=    7 NUniq=    4 SFac= 3.06D+00 NAtFMM=   60 NAOKFM=F Big=F
 Integral buffers will be    131072 words long.
 Raffenetti 2 integral format.
 Two-electron integral symmetry is turned on.
 Leave Link  301 at Wed Sep 18 00:18:20 2024, MaxMem=   268435456 cpu:         0.1
 (Enter /g100_work/pMI24_ChiCa/g09d1/g09d01/d01/build-node-6-2-59348/src/main/l302.exe)
 NPDir=0 NMtPBC=     1 NCelOv=     1 NCel=       1 NClECP=     1 NCelD=      1
         NCelK=      1 NCelE2=     1 NClLst=     1 CellRange=     0.0.
 One-electron integrals computed using PRISM.
 One-electron integral symmetry used in STVInt
 NBasis=   109 RedAO= T EigKep=  1.94D-03  NBF=    56    53
 NBsUse=   109 1.00D-06 EigRej= -1.00D+00 NBFU=    56    53
 Precomputing XC quadrature grid using
 IXCGrd= 4 IRadAn=           0 IRanWt=          -1 IRanGd=           0 AccXCQ= 0.00D+00.
 Generated NRdTot=       0 NPtTot=           0 NUsed=           0 NTot=          32
 NSgBfM=   109   109   109   109   109 MxSgAt=     7 MxSgA2=     7.
 Leave Link  302 at Wed Sep 18 00:18:20 2024, MaxMem=   268435456 cpu:         1.3
 (Enter /g100_work/pMI24_ChiCa/g09d1/g09d01/d01/build-node-6-2-59348/src/main/l303.exe)
 DipDrv:  MaxL=1.
 Leave Link  303 at Wed Sep 18 00:18:20 2024, MaxMem=   268435456 cpu:         0.2
 (Enter /g100_work/pMI24_ChiCa/g09d1/g09d01/d01/build-node-6-2-59348/src/main/l401.exe)
 Initial guess from the checkpoint file:  "/g100_scratch/userexternal/ecabiati/g16_14421766/Gau-35789.chk"
 B after Tr=    -0.000000    0.000000    0.000000
         Rot=    0.999998   -0.000000   -0.000000   -0.001796 Ang=  -0.21 deg.
 Guess basis will be translated and rotated to current coordinates.
 JPrj=2 DoOrth=T DoCkMO=T.
 Initial guess orbital symmetries:
       Occupied  (A) (B) (A) (B) (A) (A) (B) (A) (B) (A) (B) (A)
                 (B) (A) (B) (A) (B) (A) (B) (A) (B) (A) (B) (A)
                 (B)
       Virtual   (A) (A) (A) (A) (A) (A) (A) (A) (A) (A) (A) (A)
                 (A) (A) (A) (A) (A) (A) (A) (A) (A) (A) (A) (A)
                 (A) (A) (A) (A) (A) (A) (A) (A) (A) (A) (A) (A)
                 (A) (A) (A) (A) (A) (A) (A) (B) (B) (B) (B) (B)
                 (B) (B) (B) (B) (B) (B) (B) (B) (B) (B) (B) (B)
                 (B) (B) (B) (B) (B) (B) (B) (B) (B) (B) (B) (B)
                 (B) (B) (B) (B) (B) (B) (B) (B) (B) (B) (B) (B)
 The electronic state of the initial guess is 1-A.
 Generating alternative initial guess.
 ExpMin= 4.05D-02 ExpMax= 2.19D+04 ExpMxC= 3.30D+03 IAcc=2 IRadAn=         4 AccDes= 0.00D+00
 Harris functional with IExCor=  402 and IRadAn=       4 diagonalized for initial guess.
 HarFok:  IExCor=  402 AccDes= 0.00D+00 IRadAn=         4 IDoV= 1 UseB2=F ITyADJ=14
 ICtDFT=  3500011 ScaDFX=  1.000000  1.000000  1.000000  1.000000
 FoFCou: FMM=F IPFlag=           0 FMFlag=      100000 FMFlg1=           0
         NFxFlg=           0 DoJE=T BraDBF=F KetDBF=T FulRan=T
         wScrn=  0.000000 ICntrl=     500 IOpCl=  0 I1Cent=   200000004 NGrid=           0
         NMat0=    1 NMatS0=      1 NMatT0=    0 NMatD0=    1 NMtDS0=    0 NMtDT0=    0
 Petite list used in FoFCou.
 Harris En= -700.309098631610    
 Leave Link  401 at Wed Sep 18 00:18:20 2024, MaxMem=   268435456 cpu:         2.0
 (Enter /g100_work/pMI24_ChiCa/g09d1/g09d01/d01/build-node-6-2-59348/src/main/l502.exe)
 Closed shell SCF:
 Using DIIS extrapolation, IDIIS=  1040.
 Integral symmetry usage will be decided dynamically.
 Keep R1 ints in memory in symmetry-blocked form, NReq=27032647.
 IVT=       57763 IEndB=       57763 NGot=   268435456 MDV=   259375929
 LenX=   259375929 LenY=   259363607
 Requested convergence on RMS density matrix=1.00D-08 within 128 cycles.
 Requested convergence on MAX density matrix=1.00D-06.
 Requested convergence on             energy=1.00D-06.
 No special actions if energy rises.
 FoFCou: FMM=F IPFlag=           0 FMFlag=           0 FMFlg1=           0
         NFxFlg=           0 DoJE=F BraDBF=F KetDBF=F FulRan=T
         wScrn=  0.000000 ICntrl=     600 IOpCl=  0 I1Cent=           0 NGrid=           0
         NMat0=    1 NMatS0=   5995 NMatT0=    0 NMatD0=    1 NMtDS0=    0 NMtDT0=    0
 Petite list used in FoFCou.

 Cycle   1  Pass 1  IDiag  1:
 E= -700.203870678740    
 DIIS: error= 7.72D-03 at cycle   1 NSaved=   1.
 NSaved= 1 IEnMin= 1 EnMin= -700.203870678740     IErMin= 1 ErrMin= 7.72D-03
 ErrMax= 7.72D-03  0.00D+00 EMaxC= 1.00D-01 BMatC= 1.34D-02 BMatP= 1.34D-02
 IDIUse=3 WtCom= 9.23D-01 WtEn= 7.72D-02
 Coeff-Com:  0.100D+01
 Coeff-En:   0.100D+01
 Coeff:      0.100D+01
 Gap=     0.559 Goal=   None    Shift=    0.000
 GapD=    0.559 DampG=2.000 DampE=1.000 DampFc=2.0000 IDamp=-1.
 RMSDP=2.79D-03 MaxDP=3.35D-02              OVMax= 8.22D-02

 Cycle   2  Pass 1  IDiag  1:
 E= -700.226436229690     Delta-E=       -0.022565550950 Rises=F Damp=F
 DIIS: error= 3.93D-03 at cycle   2 NSaved=   2.
 NSaved= 2 IEnMin= 2 EnMin= -700.226436229690     IErMin= 2 ErrMin= 3.93D-03
 ErrMax= 3.93D-03  0.00D+00 EMaxC= 1.00D-01 BMatC= 3.49D-03 BMatP= 1.34D-02
 IDIUse=3 WtCom= 9.61D-01 WtEn= 3.93D-02
 Coeff-Com:  0.221D+00 0.779D+00
 Coeff-En:   0.000D+00 0.100D+01
 Coeff:      0.213D+00 0.787D+00
 Gap=     0.287 Goal=   None    Shift=    0.000
 RMSDP=1.13D-03 MaxDP=1.63D-02 DE=-2.26D-02 OVMax= 3.20D-02

 Cycle   3  Pass 1  IDiag  1:
 E= -700.223933979335     Delta-E=        0.002502250355 Rises=F Damp=F
 DIIS: error= 6.21D-03 at cycle   3 NSaved=   3.
 NSaved= 3 IEnMin= 2 EnMin= -700.226436229690     IErMin= 2 ErrMin= 3.93D-03
 ErrMax= 6.21D-03  0.00D+00 EMaxC= 1.00D-01 BMatC= 6.96D-03 BMatP= 3.49D-03
 IDIUse=3 WtCom= 1.13D-01 WtEn= 8.87D-01
 Coeff-Com: -0.387D-01 0.605D+00 0.433D+00
 Coeff-En:   0.000D+00 0.625D+00 0.375D+00
 Coeff:     -0.435D-02 0.622D+00 0.382D+00
 Gap=     0.293 Goal=   None    Shift=    0.000
 RMSDP=6.79D-04 MaxDP=9.60D-03 DE= 2.50D-03 OVMax= 1.79D-02

 Cycle   4  Pass 1  IDiag  1:
 E= -700.229146187525     Delta-E=       -0.005212208190 Rises=F Damp=F
 DIIS: error= 5.63D-04 at cycle   4 NSaved=   4.
 NSaved= 4 IEnMin= 4 EnMin= -700.229146187525     IErMin= 4 ErrMin= 5.63D-04
 ErrMax= 5.63D-04  0.00D+00 EMaxC= 1.00D-01 BMatC= 8.51D-05 BMatP= 3.49D-03
 IDIUse=3 WtCom= 9.94D-01 WtEn= 5.63D-03
 Coeff-Com: -0.261D-01 0.255D+00 0.138D+00 0.633D+00
 Coeff-En:   0.000D+00 0.000D+00 0.000D+00 0.100D+01
 Coeff:     -0.260D-01 0.254D+00 0.137D+00 0.636D+00
 Gap=     0.293 Goal=   None    Shift=    0.000
 RMSDP=1.13D-04 MaxDP=4.40D-03 DE=-5.21D-03 OVMax= 2.36D-03

 Cycle   5  Pass 1  IDiag  1:
 E= -700.229210699153     Delta-E=       -0.000064511629 Rises=F Damp=F
 DIIS: error= 2.07D-04 at cycle   5 NSaved=   5.
 NSaved= 5 IEnMin= 5 EnMin= -700.229210699153     IErMin= 5 ErrMin= 2.07D-04
 ErrMax= 2.07D-04  0.00D+00 EMaxC= 1.00D-01 BMatC= 1.09D-05 BMatP= 8.51D-05
 IDIUse=3 WtCom= 9.98D-01 WtEn= 2.07D-03
 Coeff-Com: -0.759D-02 0.615D-01 0.205D-01 0.339D+00 0.587D+00
 Coeff-En:   0.000D+00 0.000D+00 0.000D+00 0.000D+00 0.100D+01
 Coeff:     -0.757D-02 0.614D-01 0.204D-01 0.338D+00 0.587D+00
 Gap=     0.293 Goal=   None    Shift=    0.000
 RMSDP=3.26D-05 MaxDP=1.32D-03 DE=-6.45D-05 OVMax= 5.90D-04

 Cycle   6  Pass 1  IDiag  1:
 E= -700.229218475775     Delta-E=       -0.000007776622 Rises=F Damp=F
 DIIS: error= 8.41D-05 at cycle   6 NSaved=   6.
 NSaved= 6 IEnMin= 6 EnMin= -700.229218475775     IErMin= 6 ErrMin= 8.41D-05
 ErrMax= 8.41D-05  0.00D+00 EMaxC= 1.00D-01 BMatC= 8.65D-07 BMatP= 1.09D-05
 IDIUse=1 WtCom= 1.00D+00 WtEn= 0.00D+00
 Coeff-Com: -0.762D-03 0.529D-03-0.666D-02 0.100D+00 0.285D+00 0.622D+00
 Coeff:     -0.762D-03 0.529D-03-0.666D-02 0.100D+00 0.285D+00 0.622D+00
 Gap=     0.293 Goal=   None    Shift=    0.000
 RMSDP=8.55D-06 MaxDP=1.24D-04 DE=-7.78D-06 OVMax= 1.66D-04

 Cycle   7  Pass 1  IDiag  1:
 E= -700.229219106741     Delta-E=       -0.000000630966 Rises=F Damp=F
 DIIS: error= 8.63D-06 at cycle   7 NSaved=   7.
 NSaved= 7 IEnMin= 7 EnMin= -700.229219106741     IErMin= 7 ErrMin= 8.63D-06
 ErrMax= 8.63D-06  0.00D+00 EMaxC= 1.00D-01 BMatC= 2.01D-08 BMatP= 8.65D-07
 IDIUse=1 WtCom= 1.00D+00 WtEn= 0.00D+00
 Coeff-Com:  0.176D-03-0.437D-02-0.384D-02 0.948D-02 0.529D-01 0.200D+00
 Coeff-Com:  0.746D+00
 Coeff:      0.176D-03-0.437D-02-0.384D-02 0.948D-02 0.529D-01 0.200D+00
 Coeff:      0.746D+00
 Gap=     0.293 Goal=   None    Shift=    0.000
 RMSDP=1.98D-06 MaxDP=3.58D-05 DE=-6.31D-07 OVMax= 3.53D-05

 Cycle   8  Pass 1  IDiag  1:
 E= -700.229219124017     Delta-E=       -0.000000017276 Rises=F Damp=F
 DIIS: error= 9.69D-07 at cycle   8 NSaved=   8.
 NSaved= 8 IEnMin= 8 EnMin= -700.229219124017     IErMin= 8 ErrMin= 9.69D-07
 ErrMax= 9.69D-07  0.00D+00 EMaxC= 1.00D-01 BMatC= 1.65D-10 BMatP= 2.01D-08
 IDIUse=1 WtCom= 1.00D+00 WtEn= 0.00D+00
 Coeff-Com:  0.426D-04-0.650D-03-0.375D-03-0.844D-03 0.126D-02 0.185D-01
 Coeff-Com:  0.115D+00 0.867D+00
 Coeff:      0.426D-04-0.650D-03-0.375D-03-0.844D-03 0.126D-02 0.185D-01
 Coeff:      0.115D+00 0.867D+00
 Gap=     0.293 Goal=   None    Shift=    0.000
 RMSDP=2.53D-07 MaxDP=2.54D-06 DE=-1.73D-08 OVMax= 3.59D-06

 Cycle   9  Pass 1  IDiag  1:
 E= -700.229219124199     Delta-E=       -0.000000000182 Rises=F Damp=F
 DIIS: error= 2.04D-07 at cycle   9 NSaved=   9.
 NSaved= 9 IEnMin= 9 EnMin= -700.229219124199     IErMin= 9 ErrMin= 2.04D-07
 ErrMax= 2.04D-07  0.00D+00 EMaxC= 1.00D-01 BMatC= 8.98D-12 BMatP= 1.65D-10
 IDIUse=1 WtCom= 1.00D+00 WtEn= 0.00D+00
 Coeff-Com:  0.345D-05 0.993D-06 0.377D-04-0.558D-03-0.155D-02-0.261D-02
 Coeff-Com:  0.124D-02 0.199D+00 0.805D+00
 Coeff:      0.345D-05 0.993D-06 0.377D-04-0.558D-03-0.155D-02-0.261D-02
 Coeff:      0.124D-02 0.199D+00 0.805D+00
 Gap=     0.293 Goal=   None    Shift=    0.000
 RMSDP=4.79D-08 MaxDP=6.83D-07 DE=-1.82D-10 OVMax= 8.13D-07

 Cycle  10  Pass 1  IDiag  1:
 E= -700.229219124201     Delta-E=       -0.000000000002 Rises=F Damp=F
 DIIS: error= 3.34D-08 at cycle  10 NSaved=  10.
 NSaved=10 IEnMin=10 EnMin= -700.229219124201     IErMin=10 ErrMin= 3.34D-08
 ErrMax= 3.34D-08  0.00D+00 EMaxC= 1.00D-01 BMatC= 3.45D-13 BMatP= 8.98D-12
 IDIUse=1 WtCom= 1.00D+00 WtEn= 0.00D+00
 Coeff-Com: -0.501D-06 0.216D-04 0.159D-04-0.876D-04-0.355D-03-0.112D-02
 Coeff-Com: -0.325D-02 0.132D-01 0.147D+00 0.845D+00
 Coeff:     -0.501D-06 0.216D-04 0.159D-04-0.876D-04-0.355D-03-0.112D-02
 Coeff:     -0.325D-02 0.132D-01 0.147D+00 0.845D+00
 Gap=     0.293 Goal=   None    Shift=    0.000
 RMSDP=6.99D-09 MaxDP=1.49D-07 DE=-1.59D-12 OVMax= 1.56D-07

 SCF Done:  E(RB3LYP) =  -700.229219124     A.U. after   10 cycles
            NFock= 10  Conv=0.70D-08     -V/T= 2.0064
 KE= 6.957780053299D+02 PE=-2.215673160643D+03 EE= 5.393623923332D+02
 Leave Link  502 at Wed Sep 18 00:18:21 2024, MaxMem=   268435456 cpu:         9.9
 (Enter /g100_work/pMI24_ChiCa/g09d1/g09d01/d01/build-node-6-2-59348/src/main/l701.exe)
 Compute integral first derivatives.
 ... and contract with generalized density number  0.
 Leave Link  701 at Wed Sep 18 00:18:21 2024, MaxMem=   268435456 cpu:         1.6
 (Enter /g100_work/pMI24_ChiCa/g09d1/g09d01/d01/build-node-6-2-59348/src/main/l702.exe)
 L702 exits ... SP integral derivatives will be done elsewhere.
 Leave Link  702 at Wed Sep 18 00:18:21 2024, MaxMem=   268435456 cpu:         0.1
 (Enter /g100_work/pMI24_ChiCa/g09d1/g09d01/d01/build-node-6-2-59348/src/main/l703.exe)
 Compute integral first derivatives, UseDBF=F ICtDFT=           0.
 Integral derivatives from FoFJK, PRISM(SPDF).
 Calling FoFJK, ICntrl=      2127 FMM=F ISym2X=1 I1Cent= 0 IOpClX= 0 NMat=1 NMatS=1 NMatT=0.
 FoFJK:  IHMeth= 1 ICntrl=    2127 DoSepK=F KAlg= 0 I1Cent=   0 FoldK=F
 IRaf=         0 NMat=   1 IRICut=       1 DoRegI=T DoRafI=F ISym2E= 1.
 FoFCou: FMM=F IPFlag=           0 FMFlag=      100000 FMFlg1=         800
         NFxFlg=           0 DoJE=F BraDBF=F KetDBF=F FulRan=T
         wScrn=  0.000000 ICntrl=    2127 IOpCl=  0 I1Cent=           0 NGrid=           0
         NMat0=    1 NMatS0=      1 NMatT0=    0 NMatD0=    1 NMtDS0=    0 NMtDT0=    0
 Petite list used in FoFCou.
 Leave Link  703 at Wed Sep 18 00:18:21 2024, MaxMem=   268435456 cpu:         5.0
 (Enter /g100_work/pMI24_ChiCa/g09d1/g09d01/d01/build-node-6-2-59348/src/main/l716.exe)
 Dipole        =-1.33226763D-15 1.33226763D-15-7.57588000D-01
 ***** Axes restored to original set *****
 -------------------------------------------------------------------
 Center     Atomic                   Forces (Hartrees/Bohr)
 Number     Number              X              Y              Z
 -------------------------------------------------------------------
      1       16          -0.027061071    0.000000000   -0.019135067
      2        8           0.002118040   -0.002916125   -0.009120775
      3        8          -0.007893136    0.002916125    0.005037165
      4        8           0.016078715    0.024690798    0.011465029
      5        8           0.016168905   -0.024690798    0.011337481
      6        1          -0.001283407    0.003956780    0.002439261
      7        1           0.001871954   -0.003956780   -0.002023095
 -------------------------------------------------------------------
 Cartesian Forces:  Max     0.027061071 RMS     0.012604857
 Leave Link  716 at Wed Sep 18 00:18:21 2024, MaxMem=   268435456 cpu:         0.1
 (Enter /g100_work/pMI24_ChiCa/g09d1/g09d01/d01/build-node-6-2-59348/src/main/l103.exe)

 GradGradGradGradGradGradGradGradGradGradGradGradGradGradGradGradGradGrad
 Berny optimization.
 Using GEDIIS/GDIIS optimizer.
 FormGI is forming the generalized inverse of G from B-inverse, IUseBI=4.
 Internal  Forces:  Max     0.031218283 RMS     0.010502914
 Search for a local minimum.
 Step number   2 out of a maximum of   30
 All quantities printed in internal units (Hartrees-Bohrs-Radians)
 RMS Force = .10503D-01 SwitMx=.10000D-02 MixMth= 1
 Mixed Optimization -- RFO/linear search
 Update second derivatives using D2CorX and points    1    2
 DE= -2.43D-02 DEPred=-2.50D-02 R= 9.71D-01
 TightC=F SS=  1.41D+00  RLast= 3.86D-01 DXNew= 5.0454D-01 1.1567D+00
 Trust test= 9.71D-01 RLast= 3.86D-01 DXMaxT set to 5.05D-01
 The second derivative matrix:
                          R1        R2        R3        R4        R5
           R1           0.40875
           R2          -0.00294   0.40875
           R3          -0.01752  -0.01752   0.68552
           R4          -0.01752  -0.01752  -0.04906   0.68552
           R5           0.00217   0.00217   0.01822   0.01822   0.57571
           R6           0.00217   0.00217   0.01822   0.01822  -0.00110
           A1          -0.00803  -0.00803  -0.04069  -0.04069   0.00661
           A2          -0.00311  -0.00311  -0.00581  -0.00581   0.00351
           A3          -0.00404  -0.00404  -0.00787  -0.00787   0.00453
           A4          -0.00404  -0.00404  -0.00787  -0.00787   0.00453
           A5          -0.00311  -0.00311  -0.00581  -0.00581   0.00351
           A6           0.01474   0.01474   0.05348   0.05348  -0.01416
           A7           0.00233   0.00233  -0.00368  -0.00368  -0.00340
           A8           0.00233   0.00233  -0.00368  -0.00368  -0.00340
           D1           0.00027   0.00027   0.00006   0.00006  -0.00034
           D2           0.01168   0.01168   0.01035   0.01035  -0.01428
           D3          -0.01112  -0.01112  -0.01029  -0.01029   0.01356
           D4           0.00027   0.00027   0.00006   0.00006  -0.00034
           D5          -0.01112  -0.01112  -0.01029  -0.01029   0.01356
           D6           0.01168   0.01168   0.01035   0.01035  -0.01428
                          R6        A1        A2        A3        A4
           R6           0.57571
           A1           0.00661   0.22900
           A2           0.00351  -0.00684   0.24963
           A3           0.00453  -0.00894  -0.00055   0.24919
           A4           0.00453  -0.00894  -0.00055  -0.00081   0.24919
           A5           0.00351  -0.00684  -0.00037  -0.00055  -0.00055
           A6          -0.01416   0.03581   0.00769   0.01020   0.01020
           A7          -0.00340   0.00409  -0.00157  -0.00194  -0.00194
           A8          -0.00340   0.00409  -0.00157  -0.00194  -0.00194
           D1          -0.00034   0.00053  -0.00007  -0.00008  -0.00008
           D2          -0.01428   0.02423  -0.00126  -0.00130  -0.00130
           D3           0.01356  -0.02313   0.00110   0.00111   0.00111
           D4          -0.00034   0.00053  -0.00007  -0.00008  -0.00008
           D5           0.01356  -0.02313   0.00110   0.00111   0.00111
           D6          -0.01428   0.02423  -0.00126  -0.00130  -0.00130
                          A5        A6        A7        A8        D1
           A5           0.24963
           A6           0.00769   0.19743
           A7          -0.00157  -0.00078   0.16373
           A8          -0.00157  -0.00078   0.00373   0.16373
           D1          -0.00007  -0.00039   0.00027   0.00027   0.01827
           D2          -0.00126  -0.02177   0.00954   0.00954   0.00057
           D3           0.00110   0.02100  -0.00895  -0.00895  -0.00053
           D4          -0.00007  -0.00039   0.00027   0.00027   0.00002
           D5           0.00110   0.02100  -0.00895  -0.00895  -0.00053
           D6          -0.00126  -0.02177   0.00954   0.00954   0.00057
                          D2        D3        D4        D5        D6
           D2           0.03528
           D3          -0.01575   0.03282
           D4           0.00057  -0.00053   0.01827
           D5          -0.01575   0.01456  -0.00053   0.03282
           D6           0.01703  -0.01575   0.00057  -0.01575   0.03528
 ITU=  1  0
 Use linear search instead of GDIIS.
     Eigenvalues ---    0.01825   0.01831   0.15497   0.15556   0.16000
     Eigenvalues ---    0.16296   0.18966   0.21137   0.25814   0.40032
     Eigenvalues ---    0.41169   0.56045   0.57681   0.66370   0.73458
 RFO step:  Lambda=-2.67837631D-03 EMin= 1.82525757D-02
 Quartic linear search produced a step of  0.22560.
 Iteration  1 RMS(Cart)=  0.02351361 RMS(Int)=  0.00110058
 Iteration  2 RMS(Cart)=  0.00049628 RMS(Int)=  0.00101992
 Iteration  3 RMS(Cart)=  0.00000072 RMS(Int)=  0.00101992
 ITry= 1 IFail=0 DXMaxC= 4.80D-02 DCOld= 1.00D+10 DXMaxT= 5.05D-01 DXLimC= 3.00D+00 Rises=F
 ClnCor:  largest displacement from symmetrization is 1.22D-09 for atom     5.
 Variable       Old X    -DE/DX   Delta X   Delta X   Delta X     New X
                                 (Linear)    (Quad)   (Total)
    R1        3.08989  -0.00660  -0.01062  -0.00927  -0.01989   3.07001
    R2        3.08989  -0.00660  -0.01062  -0.00927  -0.01989   3.07001
    R3        2.79736  -0.03122  -0.01266  -0.04086  -0.05352   2.74384
    R4        2.79736  -0.03122  -0.01266  -0.04086  -0.05352   2.74384
    R5        1.83232   0.00467   0.00836   0.00227   0.01063   1.84295
    R6        1.83232   0.00467   0.00836   0.00227   0.01063   1.84295
    A1        1.73743  -0.00432  -0.03908   0.01610  -0.02492   1.71251
    A2        1.90612  -0.00021  -0.00310   0.00225  -0.00270   1.90342
    A3        1.88644  -0.00197  -0.00441  -0.00620  -0.01236   1.87409
    A4        1.88644  -0.00197  -0.00441  -0.00620  -0.01236   1.87409
    A5        1.90612  -0.00021  -0.00310   0.00225  -0.00270   1.90342
    A6        2.10564   0.00660   0.04607  -0.00412   0.04138   2.14702
    A7        1.85942   0.00177  -0.01155   0.02822   0.01666   1.87608
    A8        1.85942   0.00177  -0.01155   0.02822   0.01666   1.87608
    D1        2.08720   0.00006  -0.00353  -0.00367  -0.00705   2.08015
    D2       -2.22242  -0.00415  -0.03079  -0.00256  -0.03247  -2.25488
    D3        0.09836   0.00280   0.02219  -0.01107   0.01008   0.10845
    D4        2.08720   0.00006  -0.00353  -0.00367  -0.00705   2.08015
    D5        0.09836   0.00280   0.02219  -0.01107   0.01008   0.10845
    D6       -2.22242  -0.00415  -0.03079  -0.00256  -0.03247  -2.25488
         Item               Value     Threshold  Converged?
 Maximum Force            0.031218     0.000450     NO 
 RMS     Force            0.010503     0.000300     NO 
 Maximum Displacement     0.048019     0.001800     NO 
 RMS     Displacement     0.023586     0.001200     NO 
 Predicted change in Energy=-2.398065D-03
 Lowest energy point so far.  Saving SCF results.
 GradGradGradGradGradGradGradGradGradGradGradGradGradGradGradGradGradGrad

 Leave Link  103 at Wed Sep 18 00:18:22 2024, MaxMem=   268435456 cpu:         1.2
 (Enter /g100_work/pMI24_ChiCa/g09d1/g09d01/d01/build-node-6-2-59348/src/main/l202.exe)
                          Input orientation:                          
 ---------------------------------------------------------------------
 Center     Atomic      Atomic             Coordinates (Angstroms)
 Number     Number       Type             X           Y           Z
 ---------------------------------------------------------------------
      1         16           0       -0.101413   -0.000000   -0.071710
      2          8           0        0.059430   -0.026871    1.544663
      3          8           0        1.476132    0.026871   -0.458856
      4          8           0       -0.635379   -1.274942   -0.516280
      5          8           0       -0.698546    1.274942   -0.426948
      6          1           0       -0.373101    0.773658    1.895624
      7          1           0        1.662844   -0.773658   -0.983638
 ---------------------------------------------------------------------
                    Distance matrix (angstroms):
                    1          2          3          4          5
     1  S    0.000000
     2  O    1.624578   0.000000
     3  O    1.624578   2.454388   0.000000
     4  O    1.451978   2.507573   2.481228   0.000000
     5  O    1.451978   2.481228   2.507573   2.552231   0.000000
     6  H    2.131376   0.975246   3.085601   3.175348   2.398237
     7  H    2.131376   3.085601   0.975246   2.398237   3.175348
                    6          7
     6  H    0.000000
     7  H    3.850898   0.000000
 Stoichiometry    H2O4S
 Framework group  C2[C2(S),X(H2O4)]
 Deg. of freedom     8
 Full point group                 C2      NOp   2
 RotChk:  IX=0 Diff= 6.31D-04
 Largest Abelian subgroup         C2      NOp   2
 Largest concise Abelian subgroup C2      NOp   2
                         Standard orientation:                         
 ---------------------------------------------------------------------
 Center     Atomic      Atomic             Coordinates (Angstroms)
 Number     Number       Type             X           Y           Z
 ---------------------------------------------------------------------
      1         16           0       -0.000000    0.000000    0.155565
      2          8           0       -0.000000    1.227194   -0.908977
      3          8           0        0.000000   -1.227194   -0.908977
      4          8           0        1.275835   -0.026774    0.848218
      5          8           0       -1.275835    0.026774    0.848218
      6          1           0       -0.812080    1.745818   -0.758444
      7          1           0        0.812080   -1.745818   -0.758444
 ---------------------------------------------------------------------
 Rotational constants (GHZ):      4.9913545      4.6905507      4.6276842
 Leave Link  202 at Wed Sep 18 00:18:22 2024, MaxMem=   268435456 cpu:         0.1
 (Enter /g100_work/pMI24_ChiCa/g09d1/g09d01/d01/build-node-6-2-59348/src/main/l301.exe)
 Standard basis: 6-31+G(d,p) (6D, 7F)
 Ernie: Thresh=  0.10000D-02 Tol=  0.10000D-05 Strict=F.
 There are    56 symmetry adapted cartesian basis functions of A   symmetry.
 There are    53 symmetry adapted cartesian basis functions of B   symmetry.
 There are    56 symmetry adapted basis functions of A   symmetry.
 There are    53 symmetry adapted basis functions of B   symmetry.
   109 basis functions,   198 primitive gaussians,   109 cartesian basis functions
    25 alpha electrons       25 beta electrons
       nuclear repulsion energy       283.7715644758 Hartrees.
 IExCor=  402 DFT=T Ex+Corr=B3LYP ExCW=0 ScaHFX=  0.200000
 ScaDFX=  0.800000  0.720000  1.000000  0.810000 ScalE2=  1.000000  1.000000
 IRadAn=      0 IRanWt=     -1 IRanGd=            0 ICorTp=0 IEmpDi=  4
 NAtoms=    7 NActive=    7 NUniq=    4 SFac= 3.06D+00 NAtFMM=   60 NAOKFM=F Big=F
 Integral buffers will be    131072 words long.
 Raffenetti 2 integral format.
 Two-electron integral symmetry is turned on.
 Leave Link  301 at Wed Sep 18 00:18:22 2024, MaxMem=   268435456 cpu:         0.1
 (Enter /g100_work/pMI24_ChiCa/g09d1/g09d01/d01/build-node-6-2-59348/src/main/l302.exe)
 NPDir=0 NMtPBC=     1 NCelOv=     1 NCel=       1 NClECP=     1 NCelD=      1
         NCelK=      1 NCelE2=     1 NClLst=     1 CellRange=     0.0.
 One-electron integrals computed using PRISM.
 One-electron integral symmetry used in STVInt
 NBasis=   109 RedAO= T EigKep=  1.78D-03  NBF=    56    53
 NBsUse=   109 1.00D-06 EigRej= -1.00D+00 NBFU=    56    53
 Precomputing XC quadrature grid using
 IXCGrd= 4 IRadAn=           0 IRanWt=          -1 IRanGd=           0 AccXCQ= 0.00D+00.
 Generated NRdTot=       0 NPtTot=           0 NUsed=           0 NTot=          32
 NSgBfM=   109   109   109   109   109 MxSgAt=     7 MxSgA2=     7.
 Leave Link  302 at Wed Sep 18 00:18:22 2024, MaxMem=   268435456 cpu:         1.4
 (Enter /g100_work/pMI24_ChiCa/g09d1/g09d01/d01/build-node-6-2-59348/src/main/l303.exe)
 DipDrv:  MaxL=1.
 Leave Link  303 at Wed Sep 18 00:18:22 2024, MaxMem=   268435456 cpu:         0.2
 (Enter /g100_work/pMI24_ChiCa/g09d1/g09d01/d01/build-node-6-2-59348/src/main/l401.exe)
 Initial guess from the checkpoint file:  "/g100_scratch/userexternal/ecabiati/g16_14421766/Gau-35789.chk"
 B after Tr=     0.000000   -0.000000   -0.000000
         Rot=    0.999999    0.000000    0.000000    0.001315 Ang=   0.15 deg.
 Guess basis will be translated and rotated to current coordinates.
 JPrj=2 DoOrth=T DoCkMO=T.
 Initial guess orbital symmetries:
       Occupied  (A) (B) (A) (B) (A) (A) (B) (A) (B) (A) (B) (A)
                 (B) (A) (B) (A) (B) (A) (B) (A) (B) (A) (B) (A)
                 (B)
       Virtual   (A) (A) (A) (A) (A) (A) (A) (A) (A) (A) (A) (A)
                 (A) (A) (A) (A) (A) (A) (A) (A) (A) (A) (A) (A)
                 (A) (A) (A) (A) (A) (A) (A) (A) (A) (A) (A) (A)
                 (A) (A) (A) (A) (A) (A) (A) (B) (B) (B) (B) (B)
                 (B) (B) (B) (B) (B) (B) (B) (B) (B) (B) (B) (B)
                 (B) (B) (B) (B) (B) (B) (B) (B) (B) (B) (B) (B)
                 (B) (B) (B) (B) (B) (B) (B) (B) (B) (B) (B) (B)
 The electronic state of the initial guess is 1-A.
 Generating alternative initial guess.
 ExpMin= 4.05D-02 ExpMax= 2.19D+04 ExpMxC= 3.30D+03 IAcc=2 IRadAn=         4 AccDes= 0.00D+00
 Harris functional with IExCor=  402 and IRadAn=       4 diagonalized for initial guess.
 HarFok:  IExCor=  402 AccDes= 0.00D+00 IRadAn=         4 IDoV= 1 UseB2=F ITyADJ=14
 ICtDFT=  3500011 ScaDFX=  1.000000  1.000000  1.000000  1.000000
 FoFCou: FMM=F IPFlag=           0 FMFlag=      100000 FMFlg1=           0
         NFxFlg=           0 DoJE=T BraDBF=F KetDBF=T FulRan=T
         wScrn=  0.000000 ICntrl=     500 IOpCl=  0 I1Cent=   200000004 NGrid=           0
         NMat0=    1 NMatS0=      1 NMatT0=    0 NMatD0=    1 NMtDS0=    0 NMtDT0=    0
 Petite list used in FoFCou.
 Harris En= -700.305593168124    
 Leave Link  401 at Wed Sep 18 00:18:22 2024, MaxMem=   268435456 cpu:         1.9
 (Enter /g100_work/pMI24_ChiCa/g09d1/g09d01/d01/build-node-6-2-59348/src/main/l502.exe)
 Closed shell SCF:
 Using DIIS extrapolation, IDIIS=  1040.
 Integral symmetry usage will be decided dynamically.
 Keep R1 ints in memory in symmetry-blocked form, NReq=27032647.
 IVT=       57763 IEndB=       57763 NGot=   268435456 MDV=   259375929
 LenX=   259375929 LenY=   259363607
 Requested convergence on RMS density matrix=1.00D-08 within 128 cycles.
 Requested convergence on MAX density matrix=1.00D-06.
 Requested convergence on             energy=1.00D-06.
 No special actions if energy rises.
 FoFCou: FMM=F IPFlag=           0 FMFlag=           0 FMFlg1=           0
         NFxFlg=           0 DoJE=F BraDBF=F KetDBF=F FulRan=T
         wScrn=  0.000000 ICntrl=     600 IOpCl=  0 I1Cent=           0 NGrid=           0
         NMat0=    1 NMatS0=   5995 NMatT0=    0 NMatD0=    1 NMtDS0=    0 NMtDT0=    0
 Petite list used in FoFCou.

 Cycle   1  Pass 1  IDiag  1:
 E= -700.229352685132    
 DIIS: error= 2.91D-03 at cycle   1 NSaved=   1.
 NSaved= 1 IEnMin= 1 EnMin= -700.229352685132     IErMin= 1 ErrMin= 2.91D-03
 ErrMax= 2.91D-03  0.00D+00 EMaxC= 1.00D-01 BMatC= 1.42D-03 BMatP= 1.42D-03
 IDIUse=3 WtCom= 9.71D-01 WtEn= 2.91D-02
 Coeff-Com:  0.100D+01
 Coeff-En:   0.100D+01
 Coeff:      0.100D+01
 Gap=     0.557 Goal=   None    Shift=    0.000
 GapD=    0.557 DampG=2.000 DampE=1.000 DampFc=2.0000 IDamp=-1.
 RMSDP=8.59D-04 MaxDP=1.84D-02              OVMax= 1.95D-02

 Cycle   2  Pass 1  IDiag  1:
 E= -700.231145035473     Delta-E=       -0.001792350341 Rises=F Damp=F
 DIIS: error= 1.52D-03 at cycle   2 NSaved=   2.
 NSaved= 2 IEnMin= 2 EnMin= -700.231145035473     IErMin= 2 ErrMin= 1.52D-03
 ErrMax= 1.52D-03  0.00D+00 EMaxC= 1.00D-01 BMatC= 4.95D-04 BMatP= 1.42D-03
 IDIUse=3 WtCom= 9.85D-01 WtEn= 1.52D-02
 Coeff-Com:  0.300D+00 0.700D+00
 Coeff-En:   0.000D+00 0.100D+01
 Coeff:      0.296D+00 0.704D+00
 Gap=     0.301 Goal=   None    Shift=    0.000
 RMSDP=3.74D-04 MaxDP=6.40D-03 DE=-1.79D-03 OVMax= 1.01D-02

 Cycle   3  Pass 1  IDiag  1:
 E= -700.231071592722     Delta-E=        0.000073442751 Rises=F Damp=F
 DIIS: error= 1.70D-03 at cycle   3 NSaved=   3.
 NSaved= 3 IEnMin= 2 EnMin= -700.231145035473     IErMin= 2 ErrMin= 1.52D-03
 ErrMax= 1.70D-03  0.00D+00 EMaxC= 1.00D-01 BMatC= 5.90D-04 BMatP= 4.95D-04
 IDIUse=3 WtCom= 1.95D-01 WtEn= 8.05D-01
 Coeff-Com: -0.536D-02 0.524D+00 0.481D+00
 Coeff-En:   0.000D+00 0.536D+00 0.464D+00
 Coeff:     -0.105D-02 0.533D+00 0.468D+00
 Gap=     0.304 Goal=   None    Shift=    0.000
 RMSDP=2.23D-04 MaxDP=3.23D-03 DE= 7.34D-05 OVMax= 5.61D-03

 Cycle   4  Pass 1  IDiag  1:
 E= -700.231506211460     Delta-E=       -0.000434618738 Rises=F Damp=F
 DIIS: error= 1.91D-04 at cycle   4 NSaved=   4.
 NSaved= 4 IEnMin= 4 EnMin= -700.231506211460     IErMin= 4 ErrMin= 1.91D-04
 ErrMax= 1.91D-04  0.00D+00 EMaxC= 1.00D-01 BMatC= 8.89D-06 BMatP= 4.95D-04
 IDIUse=3 WtCom= 9.98D-01 WtEn= 1.91D-03
 Coeff-Com: -0.189D-01 0.207D+00 0.214D+00 0.599D+00
 Coeff-En:   0.000D+00 0.000D+00 0.000D+00 0.100D+01
 Coeff:     -0.188D-01 0.206D+00 0.213D+00 0.599D+00
 Gap=     0.304 Goal=   None    Shift=    0.000
 RMSDP=3.42D-05 MaxDP=1.31D-03 DE=-4.35D-04 OVMax= 5.81D-04

 Cycle   5  Pass 1  IDiag  1:
 E= -700.231513833156     Delta-E=       -0.000007621696 Rises=F Damp=F
 DIIS: error= 2.86D-05 at cycle   5 NSaved=   5.
 NSaved= 5 IEnMin= 5 EnMin= -700.231513833156     IErMin= 5 ErrMin= 2.86D-05
 ErrMax= 2.86D-05  0.00D+00 EMaxC= 1.00D-01 BMatC= 2.33D-07 BMatP= 8.89D-06
 IDIUse=1 WtCom= 1.00D+00 WtEn= 0.00D+00
 Coeff-Com: -0.390D-02 0.298D-01 0.374D-01 0.181D+00 0.755D+00
 Coeff:     -0.390D-02 0.298D-01 0.374D-01 0.181D+00 0.755D+00
 Gap=     0.304 Goal=   None    Shift=    0.000
 RMSDP=6.76D-06 MaxDP=2.51D-04 DE=-7.62D-06 OVMax= 1.13D-04

 Cycle   6  Pass 1  IDiag  1:
 E= -700.231514049739     Delta-E=       -0.000000216583 Rises=F Damp=F
 DIIS: error= 5.87D-06 at cycle   6 NSaved=   6.
 NSaved= 6 IEnMin= 6 EnMin= -700.231514049739     IErMin= 6 ErrMin= 5.87D-06
 ErrMax= 5.87D-06  0.00D+00 EMaxC= 1.00D-01 BMatC= 9.43D-09 BMatP= 2.33D-07
 IDIUse=1 WtCom= 1.00D+00 WtEn= 0.00D+00
 Coeff-Com: -0.500D-03-0.397D-03 0.104D-02 0.288D-01 0.213D+00 0.758D+00
 Coeff:     -0.500D-03-0.397D-03 0.104D-02 0.288D-01 0.213D+00 0.758D+00
 Gap=     0.304 Goal=   None    Shift=    0.000
 RMSDP=1.35D-06 MaxDP=4.37D-05 DE=-2.17D-07 OVMax= 2.83D-05

 Cycle   7  Pass 1  IDiag  1:
 E= -700.231514054242     Delta-E=       -0.000000004504 Rises=F Damp=F
 DIIS: error= 4.76D-06 at cycle   7 NSaved=   7.
 NSaved= 7 IEnMin= 7 EnMin= -700.231514054242     IErMin= 7 ErrMin= 4.76D-06
 ErrMax= 4.76D-06  0.00D+00 EMaxC= 1.00D-01 BMatC= 4.88D-09 BMatP= 9.43D-09
 IDIUse=1 WtCom= 1.00D+00 WtEn= 0.00D+00
 Coeff-Com:  0.747D-04-0.288D-02-0.280D-02 0.179D-02 0.680D-01 0.467D+00
 Coeff-Com:  0.469D+00
 Coeff:      0.747D-04-0.288D-02-0.280D-02 0.179D-02 0.680D-01 0.467D+00
 Coeff:      0.469D+00
 Gap=     0.304 Goal=   None    Shift=    0.000
 RMSDP=5.69D-07 MaxDP=1.94D-05 DE=-4.50D-09 OVMax= 1.04D-05

 Cycle   8  Pass 1  IDiag  1:
 E= -700.231514057725     Delta-E=       -0.000000003483 Rises=F Damp=F
 DIIS: error= 3.18D-07 at cycle   8 NSaved=   8.
 NSaved= 8 IEnMin= 8 EnMin= -700.231514057725     IErMin= 8 ErrMin= 3.18D-07
 ErrMax= 3.18D-07  0.00D+00 EMaxC= 1.00D-01 BMatC= 1.71D-11 BMatP= 4.88D-09
 IDIUse=1 WtCom= 1.00D+00 WtEn= 0.00D+00
 Coeff-Com:  0.337D-04-0.569D-03-0.687D-03-0.963D-03 0.366D-02 0.566D-01
 Coeff-Com:  0.832D-01 0.859D+00
 Coeff:      0.337D-04-0.569D-03-0.687D-03-0.963D-03 0.366D-02 0.566D-01
 Coeff:      0.832D-01 0.859D+00
 Gap=     0.304 Goal=   None    Shift=    0.000
 RMSDP=7.22D-08 MaxDP=1.51D-06 DE=-3.48D-09 OVMax= 1.65D-06

 Cycle   9  Pass 1  IDiag  1:
 E= -700.231514057729     Delta-E=       -0.000000000005 Rises=F Damp=F
 DIIS: error= 4.82D-08 at cycle   9 NSaved=   9.
 NSaved= 9 IEnMin= 9 EnMin= -700.231514057729     IErMin= 9 ErrMin= 4.82D-08
 ErrMax= 4.82D-08  0.00D+00 EMaxC= 1.00D-01 BMatC= 5.49D-13 BMatP= 1.71D-11
 IDIUse=1 WtCom= 1.00D+00 WtEn= 0.00D+00
 Coeff-Com:  0.396D-05-0.304D-05-0.345D-04-0.225D-03-0.158D-02-0.493D-02
 Coeff-Com: -0.241D-02 0.158D+00 0.851D+00
 Coeff:      0.396D-05-0.304D-05-0.345D-04-0.225D-03-0.158D-02-0.493D-02
 Coeff:     -0.241D-02 0.158D+00 0.851D+00
 Gap=     0.304 Goal=   None    Shift=    0.000
 RMSDP=1.27D-08 MaxDP=2.31D-07 DE=-4.55D-12 OVMax= 2.02D-07

 Cycle  10  Pass 1  IDiag  1:
 E= -700.231514057735     Delta-E=       -0.000000000005 Rises=F Damp=F
 DIIS: error= 1.00D-08 at cycle  10 NSaved=  10.
 NSaved=10 IEnMin=10 EnMin= -700.231514057735     IErMin=10 ErrMin= 1.00D-08
 ErrMax= 1.00D-08  0.00D+00 EMaxC= 1.00D-01 BMatC= 1.74D-14 BMatP= 5.49D-13
 IDIUse=1 WtCom= 1.00D+00 WtEn= 0.00D+00
 Coeff-Com:  0.427D-07 0.128D-04 0.799D-05-0.308D-04-0.496D-03-0.264D-02
 Coeff-Com: -0.289D-02 0.135D-01 0.204D+00 0.788D+00
 Coeff:      0.427D-07 0.128D-04 0.799D-05-0.308D-04-0.496D-03-0.264D-02
 Coeff:     -0.289D-02 0.135D-01 0.204D+00 0.788D+00
 Gap=     0.304 Goal=   None    Shift=    0.000
 RMSDP=2.19D-09 MaxDP=2.64D-08 DE=-5.46D-12 OVMax= 2.91D-08

 SCF Done:  E(RB3LYP) =  -700.231514058     A.U. after   10 cycles
            NFock= 10  Conv=0.22D-08     -V/T= 2.0061
 KE= 6.959539914359D+02 PE=-2.222778011254D+03 EE= 5.428209412841D+02
 Leave Link  502 at Wed Sep 18 00:18:23 2024, MaxMem=   268435456 cpu:         9.7
 (Enter /g100_work/pMI24_ChiCa/g09d1/g09d01/d01/build-node-6-2-59348/src/main/l701.exe)
 Compute integral first derivatives.
 ... and contract with generalized density number  0.
 Leave Link  701 at Wed Sep 18 00:18:23 2024, MaxMem=   268435456 cpu:         1.5
 (Enter /g100_work/pMI24_ChiCa/g09d1/g09d01/d01/build-node-6-2-59348/src/main/l702.exe)
 L702 exits ... SP integral derivatives will be done elsewhere.
 Leave Link  702 at Wed Sep 18 00:18:23 2024, MaxMem=   268435456 cpu:         0.1
 (Enter /g100_work/pMI24_ChiCa/g09d1/g09d01/d01/build-node-6-2-59348/src/main/l703.exe)
 Compute integral first derivatives, UseDBF=F ICtDFT=           0.
 Integral derivatives from FoFJK, PRISM(SPDF).
 Calling FoFJK, ICntrl=      2127 FMM=F ISym2X=1 I1Cent= 0 IOpClX= 0 NMat=1 NMatS=1 NMatT=0.
 FoFJK:  IHMeth= 1 ICntrl=    2127 DoSepK=F KAlg= 0 I1Cent=   0 FoldK=F
[...]
      8 -0.146605D-02 -0.152838D+00  0.513782D+00
      9 -0.142582D-01 -0.722599D-01  0.141869D-01  0.656495D-01
     10 -0.119946D-02 -0.178165D-01 -0.329162D-01 -0.606215D-02  0.136096D+00
     11 -0.369924D-02 -0.641754D-02  0.372240D-02 -0.320286D-02  0.183348D+00
     12 -0.142683D-01  0.655348D-02  0.312426D-02  0.139750D-01  0.664598D-01
     13 -0.349220D-02 -0.156386D-01  0.404580D-01 -0.267622D-02  0.165049D-01
     14  0.498289D-02  0.444020D-02 -0.212210D-02  0.146106D-02  0.158086D-01
     15 -0.144385D-01  0.726939D-02 -0.424573D-02  0.968521D-02  0.145419D-02
     16 -0.173529D-01 -0.325368D-02 -0.129595D-02  0.103107D-02  0.160914D-02
     17 -0.180762D+00 -0.193252D-02 -0.627797D-03  0.312704D-02  0.193264D-02
     18 -0.994073D-01 -0.452540D-03  0.319080D-02  0.194772D-03 -0.148510D-02
     19 -0.160056D-02 -0.995598D-01  0.140105D+00  0.169216D-01  0.687533D-02
     20  0.286434D-02  0.183651D+00 -0.429130D+00 -0.228430D-01 -0.355182D-02
     21 -0.305233D-02  0.151474D-01 -0.127860D-01 -0.748264D-02 -0.107952D-02
               11            12            13            14            15 
     11  0.513011D+00
     12  0.163791D+00  0.122340D+00
     13 -0.124263D-01 -0.993113D-03  0.165641D+00
     14 -0.150040D-01  0.759089D-02 -0.215540D+00  0.513011D+00
     15 -0.123742D-01  0.163419D-01  0.560139D-01 -0.118265D+00  0.927952D-01
     16 -0.764068D-03 -0.302063D-02 -0.192680D-02  0.172680D-02  0.203251D-02
     17  0.431131D-02  0.408270D-02  0.133698D-02 -0.377150D-02  0.329458D-02
     18  0.121497D-02 -0.571740D-02  0.245071D-02  0.234594D-02  0.639054D-02
     19 -0.278738D-02 -0.661313D-03 -0.631935D-02 -0.890798D-03  0.131805D-02
     20 -0.377150D-02 -0.162324D-03 -0.449342D-02  0.431131D-02 -0.461214D-03
     21 -0.846065D-03 -0.241159D-02 -0.217484D-03  0.112536D-02  0.221110D-02
               16            17            18            19            20 
     16  0.744377D-02
     17  0.395907D-01  0.424387D+00
     18  0.192171D-01  0.172602D+00  0.123547D+00
     19  0.288485D-03  0.136925D-03 -0.462400D-04  0.122725D+00
     20  0.985473D-04 -0.388953D-03 -0.180072D-03 -0.175927D+00  0.424387D+00
     21 -0.640820D-04 -0.152935D-03  0.327490D-03 -0.215411D-01  0.202074D-01
               21 
     21  0.826544D-02
 FormGI is forming the generalized inverse of G from B-inverse, IUseBI=4.
 Force constants in internal coordinates: 
                1             2             3             4             5 
      1  0.271502D+00
      2  0.131241D-01  0.271502D+00
      3  0.871054D-02  0.998944D-02  0.646931D+00
      4  0.998944D-02  0.871054D-02  0.130337D-02  0.646931D+00
      5  0.142965D-02 -0.280930D-02 -0.470663D-02 -0.419643D-02  0.506587D+00
      6 -0.280930D-02  0.142965D-02 -0.419643D-02 -0.470663D-02  0.433613D-03
      7  0.200203D-01  0.200203D-01 -0.112349D-01 -0.112349D-01 -0.408198D-02
      8  0.180561D-01 -0.144265D-01  0.108821D-01 -0.920299D-02  0.352397D-02
      9  0.371134D-02 -0.134951D-01 -0.944206D-02  0.146814D-01 -0.698026D-02
     10 -0.134951D-01  0.371134D-02  0.146814D-01 -0.944206D-02  0.186468D-02
     11 -0.144265D-01  0.180561D-01 -0.920299D-02  0.108821D-01  0.234053D-02
     12 -0.774285D-02 -0.774285D-02  0.135560D-02  0.135561D-02  0.190464D-02
     13  0.416712D-01  0.101534D-02  0.643937D-02  0.291461D-02  0.182715D-01
     14  0.101534D-02  0.416712D-01  0.291461D-02  0.643937D-02 -0.900704D-04
     15 -0.190496D-02  0.753621D-02 -0.120829D-01  0.878308D-02 -0.788672D-03
     16 -0.265208D-02  0.144297D-01  0.332362D-02 -0.907025D-02  0.870264D-03
     17  0.399299D-02 -0.166875D-01  0.642941D-02 -0.349199D-02  0.854782D-03
     18  0.753621D-02 -0.190495D-02  0.878308D-02 -0.120829D-01  0.372606D-02
     19 -0.166875D-01  0.399299D-02 -0.349199D-02  0.642941D-02  0.958256D-03
     20  0.144297D-01 -0.265208D-02 -0.907025D-02  0.332362D-02 -0.468623D-02
                6             7             8             9            10 
      6  0.506587D+00
      7 -0.408198D-02  0.218780D+00
      8  0.234053D-02 -0.461437D-01  0.134860D+00
      9  0.186468D-02 -0.337044D-01 -0.139054D-01  0.131871D+00
     10 -0.698026D-02 -0.337044D-01 -0.451296D-01 -0.191684D-01  0.131871D+00
     11  0.352397D-02 -0.461437D-01 -0.155159D-01 -0.451296D-01 -0.139054D-01
     12  0.190464D-02 -0.434637D-02 -0.231606D-01 -0.227932D-01 -0.227932D-01
     13 -0.900704D-04  0.100148D-02  0.227644D-01 -0.201344D-01  0.380146D-03
     14  0.182715D-01  0.100148D-02 -0.519734D-02  0.380146D-03 -0.201344D-01
     15  0.372606D-02  0.686004D-03 -0.969752D-02  0.852045D-02 -0.490940D-01
     16 -0.468623D-02  0.331862D-01 -0.306399D-01 -0.303247D-01  0.663695D-01
     17  0.958256D-03 -0.329494D-01  0.328409D-01  0.275047D-01 -0.120082D-01
     18 -0.788672D-03  0.686004D-03  0.496140D-01 -0.490940D-01  0.852045D-02
     19  0.854782D-03 -0.329494D-01 -0.642386D-01 -0.120082D-01  0.275047D-01
     20  0.870264D-03  0.331862D-01  0.111230D-01  0.663695D-01 -0.303247D-01
               11            12            13            14            15 
     11  0.134860D+00
     12 -0.231606D-01  0.812889D-01
     13 -0.519734D-02  0.934057D-03  0.153222D+00
     14  0.227644D-01  0.934057D-03 -0.524638D-03  0.153222D+00
     15  0.496140D-01 -0.503223D-03 -0.622577D-02  0.160885D-01  0.390364D-01
     16  0.111230D-01 -0.350585D-01  0.240095D-02 -0.730752D-02 -0.176720D-01
     17 -0.642386D-01  0.351632D-01  0.615829D-02 -0.981612D-02 -0.194508D-01
     18 -0.969752D-02 -0.503223D-03  0.160885D-01 -0.622577D-02 -0.193631D-01
     19  0.328409D-01  0.351632D-01 -0.981612D-02  0.615829D-02  0.829944D-02
     20 -0.306399D-01 -0.350585D-01 -0.730752D-02  0.240095D-02  0.726049D-02
               16            17            18            19            20 
     16  0.572417D-01
     17 -0.341171D-01  0.569749D-01
     18  0.726048D-02  0.829944D-02  0.390364D-01
     19  0.345303D-02 -0.946565D-02 -0.194508D-01  0.569749D-01
     20 -0.913175D-02  0.345303D-02 -0.176720D-01 -0.341171D-01  0.572417D-01
 Leave Link  716 at Wed Sep 18 00:18:43 2024, MaxMem=   268435456 cpu:         0.2
 (Enter /g100_work/pMI24_ChiCa/g09d1/g09d01/d01/build-node-6-2-59348/src/main/l103.exe)

 GradGradGradGradGradGradGradGradGradGradGradGradGradGradGradGradGradGrad
 Berny optimization.
 Red2BG is reusing G-inverse.
 Internal  Forces:  Max     0.000057367 RMS     0.000025902
 Search for a local minimum.
 Step number   1 out of a maximum of    2
 All quantities printed in internal units (Hartrees-Bohrs-Radians)
 Second derivative matrix not updated -- analytic derivatives used.
 The second derivative matrix:
                          R1        R2        R3        R4        R5
           R1           0.27150
           R2           0.01312   0.27150
           R3           0.00871   0.00999   0.64693
           R4           0.00999   0.00871   0.00130   0.64693
           R5           0.00143  -0.00281  -0.00471  -0.00420   0.50659
           R6          -0.00281   0.00143  -0.00420  -0.00471   0.00043
           A1           0.02002   0.02002  -0.01123  -0.01123  -0.00408
           A2           0.01806  -0.01443   0.01088  -0.00920   0.00352
           A3           0.00371  -0.01350  -0.00944   0.01468  -0.00698
           A4          -0.01350   0.00371   0.01468  -0.00944   0.00186
           A5          -0.01443   0.01806  -0.00920   0.01088   0.00234
           A6          -0.00774  -0.00774   0.00136   0.00136   0.00190
           A7           0.04167   0.00102   0.00644   0.00291   0.01827
           A8           0.00102   0.04167   0.00291   0.00644  -0.00009
           D1          -0.00190   0.00754  -0.01208   0.00878  -0.00079
           D2          -0.00265   0.01443   0.00332  -0.00907   0.00087
           D3           0.00399  -0.01669   0.00643  -0.00349   0.00085
           D4           0.00754  -0.00190   0.00878  -0.01208   0.00373
           D5          -0.01669   0.00399  -0.00349   0.00643   0.00096
           D6           0.01443  -0.00265  -0.00907   0.00332  -0.00469
                          R6        A1        A2        A3        A4
           R6           0.50659
           A1          -0.00408   0.21878
           A2           0.00234  -0.04614   0.13486
           A3           0.00186  -0.03370  -0.01391   0.13187
           A4          -0.00698  -0.03370  -0.04513  -0.01917   0.13187
           A5           0.00352  -0.04614  -0.01552  -0.04513  -0.01391
           A6           0.00190  -0.00435  -0.02316  -0.02279  -0.02279
           A7          -0.00009   0.00100   0.02276  -0.02013   0.00038
           A8           0.01827   0.00100  -0.00520   0.00038  -0.02013
           D1           0.00373   0.00069  -0.00970   0.00852  -0.04909
           D2          -0.00469   0.03319  -0.03064  -0.03032   0.06637
           D3           0.00096  -0.03295   0.03284   0.02750  -0.01201
           D4          -0.00079   0.00069   0.04961  -0.04909   0.00852
           D5           0.00085  -0.03295  -0.06424  -0.01201   0.02750
           D6           0.00087   0.03319   0.01112   0.06637  -0.03032
                          A5        A6        A7        A8        D1
           A5           0.13486
           A6          -0.02316   0.08129
           A7          -0.00520   0.00093   0.15322
           A8           0.02276   0.00093  -0.00052   0.15322
           D1           0.04961  -0.00050  -0.00623   0.01609   0.03904
           D2           0.01112  -0.03506   0.00240  -0.00731  -0.01767
           D3          -0.06424   0.03516   0.00616  -0.00982  -0.01945
           D4          -0.00970  -0.00050   0.01609  -0.00623  -0.01936
           D5           0.03284   0.03516  -0.00982   0.00616   0.00830
           D6          -0.03064  -0.03506  -0.00731   0.00240   0.00726
                          D2        D3        D4        D5        D6
           D2           0.05724
           D3          -0.03412   0.05697
           D4           0.00726   0.00830   0.03904
           D5           0.00345  -0.00947  -0.01945   0.05697
           D6          -0.00913   0.00345  -0.01767  -0.03412   0.05724
 ITU=  0
     Eigenvalues ---    0.00306   0.00343   0.12057   0.13061   0.16613
     Eigenvalues ---    0.20260   0.20544   0.24597   0.25683   0.31920
     Eigenvalues ---    0.32661   0.50786   0.50808   0.64950   0.65064
 Angle between quadratic step and forces=  67.95 degrees.
 Linear search not attempted -- first point.
 Iteration  1 RMS(Cart)=  0.00047621 RMS(Int)=  0.00000015
 Iteration  2 RMS(Cart)=  0.00000012 RMS(Int)=  0.00000000
 ITry= 1 IFail=0 DXMaxC= 1.21D-03 DCOld= 1.00D+10 DXMaxT= 3.00D-01 DXLimC= 3.00D+00 Rises=F
 ClnCor:  largest displacement from symmetrization is 1.86D-11 for atom     3.
 Variable       Old X    -DE/DX   Delta X   Delta X   Delta X     New X
                                 (Linear)    (Quad)   (Total)
    R1        3.07763   0.00006   0.00000   0.00022   0.00022   3.07785
    R2        3.07763   0.00006   0.00000   0.00022   0.00022   3.07785
    R3        2.73553   0.00000   0.00000   0.00001   0.00001   2.73554
    R4        2.73553   0.00000   0.00000   0.00001   0.00001   2.73554
    R5        1.84014   0.00001   0.00000   0.00002   0.00002   1.84016
    R6        1.84014   0.00001   0.00000   0.00002   0.00002   1.84016
    A1        1.77372   0.00003   0.00000   0.00011   0.00011   1.77383
    A2        1.83960  -0.00001   0.00000  -0.00000  -0.00000   1.83959
    A3        1.89850  -0.00003   0.00000  -0.00022  -0.00022   1.89828
    A4        1.89850  -0.00003   0.00000  -0.00022  -0.00022   1.89828
    A5        1.83960  -0.00001   0.00000  -0.00000  -0.00000   1.83959
    A6        2.17464   0.00005   0.00000   0.00030   0.00030   2.17493
    A7        1.89878  -0.00001   0.00000  -0.00020  -0.00020   1.89858
    A8        1.89878  -0.00001   0.00000  -0.00020  -0.00020   1.89858
    D1        1.44076   0.00001   0.00000   0.00073   0.00073   1.44149
    D2       -2.86280  -0.00002   0.00000   0.00053   0.00053  -2.86227
    D3       -0.49437   0.00001   0.00000   0.00076   0.00076  -0.49362
    D4        1.44076   0.00001   0.00000   0.00073   0.00073   1.44149
    D5       -0.49437   0.00001   0.00000   0.00076   0.00076  -0.49362
    D6       -2.86280  -0.00002   0.00000   0.00053   0.00053  -2.86227
         Item               Value     Threshold  Converged?
 Maximum Force            0.000057     0.000450     YES
 RMS     Force            0.000026     0.000300     YES
 Maximum Displacement     0.001212     0.001800     YES
 RMS     Displacement     0.000476     0.001200     YES
 Predicted change in Energy=-3.856921D-08
 Optimization completed.
    -- Stationary point found.
                           ----------------------------
                           !   Optimized Parameters   !
                           ! (Angstroms and Degrees)  !
 --------------------------                            --------------------------
 ! Name  Definition              Value          Derivative Info.                !
 --------------------------------------------------------------------------------
 ! R1    R(1,2)                  1.6286         -DE/DX =    0.0001              !
 ! R2    R(1,3)                  1.6286         -DE/DX =    0.0001              !
 ! R3    R(1,4)                  1.4476         -DE/DX =    0.0                 !
 ! R4    R(1,5)                  1.4476         -DE/DX =    0.0                 !
 ! R5    R(2,6)                  0.9738         -DE/DX =    0.0                 !
 ! R6    R(3,7)                  0.9738         -DE/DX =    0.0                 !
 ! A1    A(2,1,3)              101.6269         -DE/DX =    0.0                 !
 ! A2    A(2,1,4)              105.4011         -DE/DX =    0.0                 !
 ! A3    A(2,1,5)              108.7759         -DE/DX =    0.0                 !
 ! A4    A(3,1,4)              108.7759         -DE/DX =    0.0                 !
 ! A5    A(3,1,5)              105.4011         -DE/DX =    0.0                 !
 ! A6    A(4,1,5)              124.5975         -DE/DX =    0.0                 !
 ! A7    A(1,2,6)              108.7922         -DE/DX =    0.0                 !
 ! A8    A(1,3,7)              108.7922         -DE/DX =    0.0                 !
 ! D1    D(3,1,2,6)             82.5495         -DE/DX =    0.0                 !
 ! D2    D(4,1,2,6)           -164.0266         -DE/DX =    0.0                 !
 ! D3    D(5,1,2,6)            -28.3254         -DE/DX =    0.0                 !
 ! D4    D(2,1,3,7)             82.5495         -DE/DX =    0.0                 !
 ! D5    D(4,1,3,7)            -28.3254         -DE/DX =    0.0                 !
 ! D6    D(5,1,3,7)           -164.0266         -DE/DX =    0.0                 !
 --------------------------------------------------------------------------------
 GradGradGradGradGradGradGradGradGradGradGradGradGradGradGradGradGradGrad

 Leave Link  103 at Wed Sep 18 00:18:43 2024, MaxMem=   268435456 cpu:         1.0
 (Enter /g100_work/pMI24_ChiCa/g09d1/g09d01/d01/build-node-6-2-59348/src/main/l9999.exe)
 1\1\GINC-R500N003\Freq\RB3LYP\6-31+G(d,p)\H2O4S1\ECABIATI\18-Sep-2024\
 0\\#P Geom=AllCheck Guess=TCheck SCRF=Check GenChk RB3LYP/6-31+G(d,p) 
 Freq\\h2o4s gas\\0,1\S,-0.1924166498,0.,-0.1360591179\O,-0.0769558175,
 -0.133088529,1.4829913849\O,1.3725257471,0.133088529,-0.5668851022\O,-
 0.694087721,-1.2789910889,-0.5921297722\O,-0.7896278767,1.2789910889,-
 0.4570155883\H,0.0086560693,0.7582156497,1.8656880853\H,1.761872952,-0
 .7582156497,-0.613735008\\Version=EM64L-G09RevD.01\State=1-A\HF=-700.2
 332233\RMSD=2.150e-09\RMSF=3.342e-05\ZeroPoint=0.0381761\Thermal=0.043
 4874\Dipole=1.0143289,0.,0.7172389\DipoleDeriv=2.4647397,-0.0741048,-0
 .0530707,-0.0456871,2.3901152,0.0646113,-0.0530707,0.1048,2.5022664,-0
 .5539043,0.0333512,-0.0868468,0.0151869,-0.4589346,-0.1190843,-0.01127
 49,-0.0307346,-1.3564667,-1.2981297,0.0178598,0.2518486,0.1072115,-0.4
 589346,-0.0540131,0.1762766,-0.0416886,-0.6122412,-0.6794253,-0.085035
 8,-0.0355389,-0.2215982,-0.9790169,-0.1770797,-0.059434,-0.1207825,-0.
 5963653,-0.6354413,0.1422201,-0.0749847,0.2408184,-0.9790169,0.1498982
 ,-0.0510896,0.0399117,-0.6403493,0.3536809,-0.0152891,0.0002299,-0.006
 662,0.2428939,0.09704,-0.003476,0.0255595,0.3489777,0.3484801,-0.01900
 14,-0.0016373,-0.0892696,0.2428939,0.0386276,0.0020686,0.0229346,0.354
 1785\Polar=33.6017604,-0.8524416,37.2496831,0.051904,1.2055344,33.5650
 587\PG=C02 [C2(S1),X(H2O4)]\NImag=0\\0.59720588,-0.03843876,1.19002205
 ,0.08548697,0.05436062,0.53675746,-0.06072085,0.00193393,-0.01239603,0
 .04984537,-0.00021340,-0.10008459,-0.00661612,0.03757048,0.51378248,-0
 .01534036,0.02925405,-0.20255585,0.02755916,0.14882608,0.34798054,-0.1
 9551311,-0.02822563,0.03231590,-0.00039478,0.00132264,0.01142631,0.332
 17643,0.00630887,-0.10008459,-0.00200417,0.00017869,0.01446004,-0.0014
 6605,-0.15283807,0.51378248,0.03526023,0.00792802,-0.06776359,0.027785
 45,-0.00065715,-0.01425823,-0.07225994,0.01418691,0.06564948,-0.151584
 08,-0.15513846,-0.05808773,0.00831495,-0.00948310,-0.00119946,-0.01781
 645,-0.03291620,-0.00606215,0.13609624,-0.15809550,-0.50014663,-0.1448
 8357,-0.00285757,-0.00212210,-0.00369924,-0.00641754,0.00372240,-0.003
 20286,0.18334834,0.51301050,-0.05719311,-0.13886703,-0.13026002,-0.011
 14507,-0.03955944,-0.01426830,0.00655348,0.00312426,0.01397499,0.06645
 976,0.16379094,0.12234047,-0.16885864,0.18263791,-0.05108564,0.0105970
 2,0.00802648,-0.00349220,-0.01563856,0.04045803,-0.00267622,0.01650487
 ,-0.01242629,-0.00099311,0.16564147,0.18929603,-0.50014663,0.10075934,
 0.00515886,0.00372240,0.00498289,0.00444020,-0.00212210,0.00146106,0.0
 1580860,-0.01500399,0.00759089,-0.21553970,0.51301050,-0.05198025,0.09
 997693,-0.11298547,-0.01610783,0.03207511,-0.01443848,0.00726939,-0.00
 424573,0.00968521,0.00145419,-0.01237419,0.01634185,0.05601394,-0.1182
 6549,0.09279524,0.00347421,-0.00470931,-0.00184306,-0.00763513,-0.0346
 4677,-0.01735288,-0.00325368,-0.00129595,0.00103107,0.00160914,-0.0007
 6407,-0.00302063,-0.00192680,0.00172680,0.00203251,0.00744377,-0.00138
 440,0.00522019,-0.00219100,-0.03968036,-0.42913044,-0.18076208,-0.0019
 3252,-0.00062780,0.00312704,0.00193264,0.00431131,0.00408270,0.0013369
 8,-0.00377150,0.00329458,0.03959074,0.42438719,-0.00410520,-0.04281943
 ,-0.02533508,-0.01557872,-0.13635390,-0.09940735,-0.00045254,0.0031908
 0,0.00019477,-0.00148510,0.00121497,-0.00571740,0.00245071,0.00234594,
 0.00639054,0.01921709,0.17260169,0.12354702,-0.02400340,0.04194031,0.0
 0560960,-0.00000658,-0.00257633,-0.00160056,-0.09955984,0.14010461,0.0
 1692157,0.00687533,-0.00278738,-0.00066131,-0.00631935,-0.00089080,0.0
 0131805,0.00028848,0.00013692,-0.00004624,0.12272536,0.00252716,0.0052
 2019,0.00057489,-0.00230403,-0.00062780,0.00286434,0.18365092,-0.42913
 044,-0.02284302,-0.00355182,-0.00377150,-0.00016232,-0.00449342,0.0043
 1131,-0.00046121,0.00009855,-0.00038895,-0.00018007,-0.17592735,0.4243
 8719,0.00787174,-0.00983316,0.00214254,-0.00011696,0.00228543,-0.00305
 233,0.01514741,-0.01278602,-0.00748264,-0.00107952,-0.00084607,-0.0024
 1159,-0.00021748,0.00112536,0.00221110,-0.00006408,-0.00015294,0.00032
 749,-0.02154111,0.02020739,0.00826544\\0.00009188,0.,0.00006497,0.0000
 0620,0.00001648,-0.00006098,-0.00005543,-0.00001648,0.00002617,-0.0000
 3091,0.00001519,-0.00000775,-0.00001761,-0.00001519,-0.00002656,0.0000
 0316,-0.00001032,0.00000175,0.00000271,0.00001032,0.00000240\\\@


 The earth never tires,
 The earth is rude, silent, incomprehensible at first,
 Nature is rude and incomprehensible at first,
 Be not discouraged, keep on,
 There are divine things well envelop'd,
 I swear to you there are divine things more beautiful than words can tell.
                                 -- Walt Whitman
 Job cpu time:       0 days  0 hours  1 minutes 11.6 seconds.
 File lengths (MBytes):  RWF=     12 Int=      0 D2E=      0 Chk=      2 Scr=      1
 Normal termination of Gaussian 09 at Wed Sep 18 00:18:43 2024.
