 Entering Gaussian System, Link 0=/g100_work/pMI24_ChiCa/g09d1/g09d01/d01/build-node-6-2-59348/src/main/g09
 Input=geom.com
 Output=geom.log
 Initial command:
 /g100_work/pMI24_ChiCa/g09d1/g09d01/d01/build-node-6-2-59348/src/main/l1.exe "/g100_scratch/userexternal/ecabiati/g16_14421777/Gau-59182.inp" -scrdir="/g100_scratch/userexternal/ecabiati/g16_14421777/"
 Entering Link 1 = /g100_work/pMI24_ChiCa/g09d1/g09d01/d01/build-node-6-2-59348/src/main/l1.exe PID=     59183.
  
 Copyright (c) 1988,1990,1992,1993,1995,1998,2003,2009,2013,
            Gaussian, Inc.  All Rights Reserved.
  
 This is part of the Gaussian(R) 09 program.  It is based on
 the Gaussian(R) 03 system (copyright 2003, Gaussian, Inc.),
 the Gaussian(R) 98 system (copyright 1998, Gaussian, Inc.),
 the Gaussian(R) 94 system (copyright 1995, Gaussian, Inc.),
 the Gaussian 92(TM) system (copyright 1992, Gaussian, Inc.),
 the Gaussian 90(TM) system (copyright 1990, Gaussian, Inc.),
 the Gaussian 88(TM) system (copyright 1988, Gaussian, Inc.),
 the Gaussian 86(TM) system (copyright 1986, Carnegie Mellon
 University), and the Gaussian 82(TM) system (copyright 1983,
 Carnegie Mellon University). Gaussian is a federally registered
 trademark of Gaussian, Inc.
  
 This software contains proprietary and confidential information,
 including trade secrets, belonging to Gaussian, Inc.
  
 This software is provided under written license and may be
 used, copied, transmitted, or stored only in accord with that
 written license.
  
 The following legend is applicable only to US Government
 contracts under FAR:
  
                    RESTRICTED RIGHTS LEGEND
  
 Use, reproduction and disclosure by the US Government is
 subject to restrictions as set forth in subparagraphs (a)
 and (c) of the Commercial Computer Software - Restricted
 Rights clause in FAR 52.227-19.
  
 Gaussian, Inc.
 340 Quinnipiac St., Bldg. 40, Wallingford CT 06492
  
  
 ---------------------------------------------------------------
 Warning -- This program may not be used in any manner that
 competes with the business of Gaussian, Inc. or will provide
 assistance to any competitor of Gaussian, Inc.  The licensee
 of this program is prohibited from giving any competitor of
 Gaussian, Inc. access to this program.  By using this program,
 the user acknowledges that Gaussian, Inc. is engaged in the
 business of creating and licensing software in the field of
 computational chemistry and represents and warrants to the
 licensee that it is not a competitor of Gaussian, Inc. and that
 it will not use this program in any manner prohibited above.
 ---------------------------------------------------------------
  

 Cite this work as:
 Gaussian 09, Revision D.01,
 M. J. Frisch, G. W. Trucks, H. B. Schlegel, G. E. Scuseria, 
 M. A. Robb, J. R. Cheeseman, G. Scalmani, V. Barone, B. Mennucci, 
 G. A. Petersson, H. Nakatsuji, M. Caricato, X. Li, H. P. Hratchian, 
 A. F. Izmaylov, J. Bloino, G. Zheng, J. L. Sonnenberg, M. Hada, 
 M. Ehara, K. Toyota, R. Fukuda, J. Hasegawa, M. Ishida, T. Nakajima, 
 Y. Honda, O. Kitao, H. Nakai, T. Vreven, J. A. Montgomery, Jr., 
 J. E. Peralta, F. Ogliaro, M. Bearpark, J. J. Heyd, E. Brothers, 
 K. N. Kudin, V. N. Staroverov, T. Keith, R. Kobayashi, J. Normand, 
 K. Raghavachari, A. Rendell, J. C. Burant, S. S. Iyengar, J. Tomasi, 
 M. Cossi, N. Rega, J. M. Millam, M. Klene, J. E. Knox, J. B. Cross, 
 V. Bakken, C. Adamo, J. Jaramillo, R. Gomperts, R. E. Stratmann, 
 O. Yazyev, A. J. Austin, R. Cammi, C. Pomelli, J. W. Ochterski, 
 R. L. Martin, K. Morokuma, V. G. Zakrzewski, G. A. Voth, 
 P. Salvador, J. J. Dannenberg, S. Dapprich, A. D. Daniels, 
 O. Farkas, J. B. Foresman, J. V. Ortiz, J. Cioslowski, 
 and D. J. Fox, Gaussian, Inc., Wallingford CT, 2013.
 
 ******************************************
 Gaussian 09:  EM64L-G09RevD.01 24-Apr-2013
                18-Sep-2024 
 ******************************************
 %nproc=24
 Will use up to   24 processors via shared memory.
 %mem=2Gb
 ------------------------------------------------------
 #p B3LYP/6-31+g(d,p) opt freq scrf=(smd,solvent=water)
 ------------------------------------------------------
 1/14=-1,18=20,19=15,26=3,38=1/1,3;
 2/9=110,12=2,17=6,18=5,40=1/2;
 3/5=1,6=6,7=111,11=2,16=1,25=1,30=1,70=32201,71=1,72=1,74=-5/1,2,3;
 4//1;
 5/5=2,38=5,53=1/2;
 6/7=2,8=2,9=2,10=2,28=1/1;
 7//1,2,3,16;
 1/14=-1,18=20,19=15,26=3/3(2);
 2/9=110/2;
 99//99;
 2/9=110/2;
 3/5=1,6=6,7=111,11=2,16=1,25=1,30=1,70=32205,71=1,72=1,74=-5/1,2,3;
 4/5=5,16=3,69=1/1;
 5/5=2,38=5,53=1/2;
 7//1,2,3,16;
 1/14=-1,18=20,19=15,26=3/3(-5);
 2/9=110/2;
 6/7=2,8=2,9=2,10=2,19=2,28=1/1;
 99/9=1/99;
 Leave Link    1 at Wed Sep 18 00:20:01 2024, MaxMem=   268435456 cpu:         0.2
 (Enter /g100_work/pMI24_ChiCa/g09d1/g09d01/d01/build-node-6-2-59348/src/main/l101.exe)
 ---------
 h2o4s sol
 ---------
 Symbolic Z-matrix:
 Charge =  0 Multiplicity = 1
 s
 o                    1    os2
 o                    1    os3      2    oso3
 o                    1    os4      2    oso4     3    dih4     0
 o                    1    os5      3    oso5     2    dih5     0
 h                    2    ho6      1    hos6     5    dih6     0
 h                    3    ho7      1    hos7     4    dih7     0
       Variables:
  os2                   1.66                     
  os3                   1.66                     
  oso3                109.471                    
  os4                   1.51                     
  oso4                110.                       
  dih4                120.                       
  os5                   1.51                     
  oso5                110.                       
  dih5                120.                       
  ho6                   0.95                     
  hos6                109.471                    
  dih6                  0.                       
  ho7                   0.95                     
  hos7                109.471                    
  dih7                  0.                       
 
     3 tetrahedral angles replaced.
 NAtoms=      7 NQM=        7 NQMF=       0 NMMI=      0 NMMIF=      0
                NMic=       0 NMicF=      0.
                    Isotopes and Nuclear Properties:
 (Nuclear quadrupole moments (NQMom) in fm**2, nuclear magnetic moments (NMagM)
  in nuclear magnetons)

  Atom         1           2           3           4           5           6           7
 IAtWgt=          32          16          16          16          16           1           1
 AtmWgt=  31.9720718  15.9949146  15.9949146  15.9949146  15.9949146   1.0078250   1.0078250
 NucSpn=           0           0           0           0           0           1           1
 AtZEff=   0.0000000   0.0000000   0.0000000   0.0000000   0.0000000   0.0000000   0.0000000
 NQMom=    0.0000000   0.0000000   0.0000000   0.0000000   0.0000000   0.0000000   0.0000000
 NMagM=    0.0000000   0.0000000   0.0000000   0.0000000   0.0000000   2.7928460   2.7928460
 AtZNuc=  16.0000000   8.0000000   8.0000000   8.0000000   8.0000000   1.0000000   1.0000000
 Leave Link  101 at Wed Sep 18 00:20:01 2024, MaxMem=   268435456 cpu:         0.2
 (Enter /g100_work/pMI24_ChiCa/g09d1/g09d01/d01/build-node-6-2-59348/src/main/l103.exe)

 GradGradGradGradGradGradGradGradGradGradGradGradGradGradGradGradGradGrad
 Berny optimization.
 Initialization pass.
                           ----------------------------
                           !    Initial Parameters    !
                           ! (Angstroms and Degrees)  !
 --------------------------                            --------------------------
 ! Name  Definition              Value          Derivative Info.                !
 --------------------------------------------------------------------------------
 ! R1    R(1,2)                  1.66           estimate D2E/DX2                !
 ! R2    R(1,3)                  1.66           estimate D2E/DX2                !
 ! R3    R(1,4)                  1.51           estimate D2E/DX2                !
 ! R4    R(1,5)                  1.51           estimate D2E/DX2                !
 ! R5    R(2,6)                  0.95           estimate D2E/DX2                !
 ! R6    R(3,7)                  0.95           estimate D2E/DX2                !
 ! A1    A(2,1,3)              109.4712         estimate D2E/DX2                !
 ! A2    A(2,1,4)              110.0            estimate D2E/DX2                !
 ! A3    A(2,1,5)              109.2062         estimate D2E/DX2                !
 ! A4    A(3,1,4)              109.2062         estimate D2E/DX2                !
 ! A5    A(3,1,5)              110.0            estimate D2E/DX2                !
 ! A6    A(4,1,5)              108.945          estimate D2E/DX2                !
 ! A7    A(1,2,6)              109.4712         estimate D2E/DX2                !
 ! A8    A(1,3,7)              109.4712         estimate D2E/DX2                !
 ! D1    D(3,1,2,6)            120.4849         estimate D2E/DX2                !
 ! D2    D(4,1,2,6)           -119.5151         estimate D2E/DX2                !
 ! D3    D(5,1,2,6)              0.0            estimate D2E/DX2                !
 ! D4    D(2,1,3,7)            120.4849         estimate D2E/DX2                !
 ! D5    D(4,1,3,7)              0.0            estimate D2E/DX2                !
 ! D6    D(5,1,3,7)           -119.5151         estimate D2E/DX2                !
 --------------------------------------------------------------------------------
 Trust Radius=3.00D-01 FncErr=1.00D-07 GrdErr=1.00D-06
 Number of steps in this run=     30 maximum allowed number of steps=    100.
 GradGradGradGradGradGradGradGradGradGradGradGradGradGradGradGradGradGrad

 Leave Link  103 at Wed Sep 18 00:20:01 2024, MaxMem=   268435456 cpu:         0.1
 (Enter /g100_work/pMI24_ChiCa/g09d1/g09d01/d01/build-node-6-2-59348/src/main/l202.exe)
                          Input orientation:                          
 ---------------------------------------------------------------------
 Center     Atomic      Atomic             Coordinates (Angstroms)
 Number     Number       Type             X           Y           Z
 ---------------------------------------------------------------------
      1         16           0        0.000000    0.000000    0.000000
      2          8           0        0.000000    0.000000    1.660000
      3          8           0        1.565063    0.000000   -0.553333
      4          8           0       -0.709468   -1.228834   -0.516450
      5          8           0       -0.723403    1.228834   -0.496743
      6          1           0       -0.454383    0.771854    1.976667
      7          1           0        1.712158   -0.771854   -1.087285
 ---------------------------------------------------------------------
                    Distance matrix (angstroms):
                    1          2          3          4          5
     1  S    0.000000
     2  O    1.660000   0.000000
     3  O    1.660000   2.710769   0.000000
     4  O    1.510000   2.598137   2.585515   0.000000
     5  O    1.510000   2.585515   2.598137   2.457788   0.000000
     6  H    2.170123   0.950000   3.327885   3.206783   2.529616
     7  H    2.170123   3.327885   0.950000   2.529616   3.206783
                    6          7
     6  H    0.000000
     7  H    4.057676   0.000000
 Stoichiometry    H2O4S
 Framework group  C2[C2(S),X(H2O4)]
 Deg. of freedom     8
 Full point group                 C2      NOp   2
 Largest Abelian subgroup         C2      NOp   2
 Largest concise Abelian subgroup C2      NOp   2
                         Standard orientation:                         
 ---------------------------------------------------------------------
 Center     Atomic      Atomic             Coordinates (Angstroms)
 Number     Number       Type             X           Y           Z
 ---------------------------------------------------------------------
      1         16           0        0.000000   -0.000000    0.056713
      2          8           0        0.000000    1.355384   -0.901688
      3          8           0       -0.000000   -1.355384   -0.901688
      4          8           0        1.228834   -0.012068    0.934164
      5          8           0       -1.228834    0.012068    0.934164
      6          1           0       -0.771854    1.876280   -0.713514
      7          1           0        0.771854   -1.876280   -0.713514
 ---------------------------------------------------------------------
 Rotational constants (GHZ):      4.8657460      4.3803304      4.1568306
 Leave Link  202 at Wed Sep 18 00:20:01 2024, MaxMem=   268435456 cpu:         0.1
 (Enter /g100_work/pMI24_ChiCa/g09d1/g09d01/d01/build-node-6-2-59348/src/main/l301.exe)
 Standard basis: 6-31+G(d,p) (6D, 7F)
 Ernie: Thresh=  0.10000D-02 Tol=  0.10000D-05 Strict=F.
 There are    56 symmetry adapted cartesian basis functions of A   symmetry.
 There are    53 symmetry adapted cartesian basis functions of B   symmetry.
 There are    56 symmetry adapted basis functions of A   symmetry.
 There are    53 symmetry adapted basis functions of B   symmetry.
   109 basis functions,   198 primitive gaussians,   109 cartesian basis functions
    25 alpha electrons       25 beta electrons
       nuclear repulsion energy       275.2418850282 Hartrees.
 IExCor=  402 DFT=T Ex+Corr=B3LYP ExCW=0 ScaHFX=  0.200000
 ScaDFX=  0.800000  0.720000  1.000000  0.810000 ScalE2=  1.000000  1.000000
 IRadAn=      0 IRanWt=     -1 IRanGd=            0 ICorTp=0 IEmpDi=  4
 NAtoms=    7 NActive=    7 NUniq=    4 SFac= 3.06D+00 NAtFMM=   60 NAOKFM=F Big=F
 Integral buffers will be    131072 words long.
 Raffenetti 2 integral format.
 Two-electron integral symmetry is turned on.
 ------------------------------------------------------------------------------
 Polarizable Continuum Model (PCM)
 =================================
 Model                : PCM (using non-symmetric T matrix).
 Atomic radii         : SMD-Coulomb.
 Polarization charges : Total charges.
 Charge compensation  : None.
 Solution method      : On-the-fly selection.
 Cavity type          : VdW (van der Waals Surface) (Alpha=1.000).
 Cavity algorithm     : GePol (No added spheres)
                        Default sphere list used, NSphG=    7.
                        Lebedev-Laikov grids with approx.  5.0 points / Ang**2.
                        Smoothing algorithm: Karplus/York (Gamma=1.0000).
                        Polarization charges: spherical gaussians, with
                                              point-specific exponents (IZeta= 3).
                        Self-potential: point-specific (ISelfS= 7).
                        Self-field    : sphere-specific E.n sum rule (ISelfD= 2).
 1st derivatives      : Analytical E(r).r(x)/FMM algorithm (CHGder, D1EAlg=3).
                        Cavity 1st derivative terms included.
 Solvent              : Water, Eps=  78.355300 Eps(inf)=   1.777849
 ------------------------------------------------------------------------------
 Spheres list:
 ISph  on   Nord     Re0    Alpha      Xe            Ye            Ze
    1   S      1    2.4900  1.000      0.000000     -0.000000      0.056713
    2   O      2    1.5200  1.000      0.000000      1.355384     -0.901688
    3   O      3    1.5200  1.000     -0.000000     -1.355384     -0.901688
    4   O      4    1.5200  1.000      1.228834     -0.012068      0.934164
    5   O      5    1.5200  1.000     -1.228834      0.012068      0.934164
    6   H      6    1.2000  1.000     -0.771854      1.876280     -0.713514
    7   H      7    1.2000  1.000      0.771854     -1.876280     -0.713514
 ------------------------------------------------------------------------------
 GePol: Number of generator spheres                  =       7
 GePol: Total number of spheres                      =       7
 GePol: Number of exposed spheres                    =       7 (100.00%)
 GePol: Number of points                             =     626
 GePol: Average weight of points                     =       0.15
 GePol: Minimum weight of points                     =   0.15D-04
 GePol: Maximum weight of points                     =    0.21991
 GePol: Number of points with low weight             =      20
 GePol: Fraction of low-weight points (<1% of avg)   =       3.19%
 GePol: Cavity surface area                          =     94.260 Ang**2
 GePol: Cavity volume                                =     78.769 Ang**3
 ------------------------------------------------------------------------------
 Atomic radii for non-electrostatic terms: SMD-CDS.
 ------------------------------------------------------------------------------
 PCM non-electrostatic energy =         0.0019203280 Hartrees.
 Nuclear repulsion after PCM non-electrostatic terms =      275.2438053562 Hartrees.
 Leave Link  301 at Wed Sep 18 00:20:01 2024, MaxMem=   268435456 cpu:         0.2
 (Enter /g100_work/pMI24_ChiCa/g09d1/g09d01/d01/build-node-6-2-59348/src/main/l302.exe)
 NPDir=0 NMtPBC=     1 NCelOv=     1 NCel=       1 NClECP=     1 NCelD=      1
         NCelK=      1 NCelE2=     1 NClLst=     1 CellRange=     0.0.
 One-electron integrals computed using PRISM.
 One-electron integral symmetry used in STVInt
 NBasis=   109 RedAO= T EigKep=  2.16D-03  NBF=    56    53
 NBsUse=   109 1.00D-06 EigRej= -1.00D+00 NBFU=    56    53
 Precomputing XC quadrature grid using
 IXCGrd= 4 IRadAn=           0 IRanWt=          -1 IRanGd=           0 AccXCQ= 0.00D+00.
 Generated NRdTot=       0 NPtTot=           0 NUsed=           0 NTot=          32
 NSgBfM=   109   109   109   109   109 MxSgAt=     7 MxSgA2=     7.
 Leave Link  302 at Wed Sep 18 00:20:02 2024, MaxMem=   268435456 cpu:         1.4
 (Enter /g100_work/pMI24_ChiCa/g09d1/g09d01/d01/build-node-6-2-59348/src/main/l303.exe)
 DipDrv:  MaxL=1.
 Leave Link  303 at Wed Sep 18 00:20:02 2024, MaxMem=   268435456 cpu:         0.2
 (Enter /g100_work/pMI24_ChiCa/g09d1/g09d01/d01/build-node-6-2-59348/src/main/l401.exe)
 ExpMin= 4.05D-02 ExpMax= 2.19D+04 ExpMxC= 3.30D+03 IAcc=2 IRadAn=         4 AccDes= 0.00D+00
 Harris functional with IExCor=  402 and IRadAn=       4 diagonalized for initial guess.
 HarFok:  IExCor=  402 AccDes= 0.00D+00 IRadAn=         4 IDoV= 1 UseB2=F ITyADJ=14
 ICtDFT=  3500011 ScaDFX=  1.000000  1.000000  1.000000  1.000000
 FoFCou: FMM=F IPFlag=           0 FMFlag=      100000 FMFlg1=           0
         NFxFlg=           0 DoJE=T BraDBF=F KetDBF=T FulRan=T
         wScrn=  0.000000 ICntrl=     500 IOpCl=  0 I1Cent=   200000004 NGrid=           0
         NMat0=    1 NMatS0=      1 NMatT0=    0 NMatD0=    1 NMtDS0=    0 NMtDT0=    0
 Petite list used in FoFCou.
 Harris En= -700.302428246876    
 JPrj=0 DoOrth=F DoCkMO=F.
 Initial guess orbital symmetries:
       Occupied  (A) (A) (B) (A) (B) (A) (B) (A) (B) (A) (B) (A)
                 (B) (A) (B) (A) (B) (B) (A) (A) (B) (A) (B) (A)
                 (B)
       Virtual   (A) (B) (A) (B) (A) (B) (B) (A) (A) (B) (A) (B)
                 (A) (B) (A) (B) (A) (B) (A) (B) (A) (B) (B) (A)
                 (A) (B) (B) (A) (A) (B) (A) (A) (B) (A) (B) (A)
                 (B) (A) (A) (B) (B) (A) (B) (A) (A) (B) (B) (A)
                 (B) (A) (B) (B) (B) (A) (A) (B) (B) (A) (A) (A)
                 (B) (B) (A) (B) (A) (B) (A) (B) (A) (A) (B) (B)
                 (A) (B) (A) (A) (B) (B) (A) (B) (A) (B) (A) (A)
 The electronic state of the initial guess is 1-A.
 Leave Link  401 at Wed Sep 18 00:20:02 2024, MaxMem=   268435456 cpu:         1.5
 (Enter /g100_work/pMI24_ChiCa/g09d1/g09d01/d01/build-node-6-2-59348/src/main/l502.exe)
 Closed shell SCF:
 Using DIIS extrapolation, IDIIS=  1040.
 Integral symmetry usage will be decided dynamically.
 Keep R1 ints in memory in symmetry-blocked form, NReq=27032647.
 IVT=       57763 IEndB=       57763 NGot=   268435456 MDV=   259375929
 LenX=   259375929 LenY=   259363607
 Requested convergence on RMS density matrix=1.00D-08 within 128 cycles.
 Requested convergence on MAX density matrix=1.00D-06.
 Requested convergence on             energy=1.00D-06.
 No special actions if energy rises.
 FoFCou: FMM=F IPFlag=           0 FMFlag=           0 FMFlg1=           0
         NFxFlg=           0 DoJE=F BraDBF=F KetDBF=F FulRan=T
         wScrn=  0.000000 ICntrl=     600 IOpCl=  0 I1Cent=           0 NGrid=           0
         NMat0=    1 NMatS0=   5995 NMatT0=    0 NMatD0=    1 NMtDS0=    0 NMtDT0=    0
 Petite list used in FoFCou.

 Cycle   1  Pass 1  IDiag  1:
 Inv3:  Mode=1 IEnd=     1175628.
 Iteration    1 A*A^-1 deviation from unit magnitude is 3.89D-15 for    380.
 Iteration    1 A*A^-1 deviation from orthogonality  is 3.77D-15 for    618     92.
 Iteration    1 A^-1*A deviation from unit magnitude is 4.00D-15 for    325.
 Iteration    1 A^-1*A deviation from orthogonality  is 4.72D-15 for    315    297.
 E= -699.895601548041    
 DIIS: error= 3.72D-02 at cycle   1 NSaved=   1.
 NSaved= 1 IEnMin= 1 EnMin= -699.895601548041     IErMin= 1 ErrMin= 3.72D-02
 ErrMax= 3.72D-02  0.00D+00 EMaxC= 1.00D-01 BMatC= 4.45D-01 BMatP= 4.45D-01
 IDIUse=3 WtCom= 6.28D-01 WtEn= 3.72D-01
 Coeff-Com:  0.100D+01
 Coeff-En:   0.100D+01
 Coeff:      0.100D+01
 Gap=     0.093 Goal=   None    Shift=    0.000
 GapD=    0.093 DampG=0.500 DampE=0.500 DampFc=0.2500 IDamp=-1.
 Damping current iteration by 2.50D-01
 RMSDP=1.68D-02 MaxDP=7.10D-01              OVMax= 2.78D-01

 Cycle   2  Pass 1  IDiag  1:
 E= -700.015921781930     Delta-E=       -0.120320233890 Rises=F Damp=T
 DIIS: error= 1.53D-02 at cycle   2 NSaved=   2.
 NSaved= 2 IEnMin= 2 EnMin= -700.015921781930     IErMin= 2 ErrMin= 1.53D-02
 ErrMax= 1.53D-02  0.00D+00 EMaxC= 1.00D-01 BMatC= 4.89D-02 BMatP= 4.45D-01
 IDIUse=3 WtCom= 8.47D-01 WtEn= 1.53D-01
 Coeff-Com: -0.419D+00 0.142D+01
 Coeff-En:   0.000D+00 0.100D+01
 Coeff:     -0.355D+00 0.135D+01
 Gap=     0.250 Goal=   None    Shift=    0.000
 RMSDP=2.27D-03 MaxDP=5.19D-02 DE=-1.20D-01 OVMax= 2.14D-01

 Cycle   3  Pass 1  IDiag  1:
 E= -700.213665027219     Delta-E=       -0.197743245289 Rises=F Damp=F
 DIIS: error= 1.18D-02 at cycle   3 NSaved=   3.
 NSaved= 3 IEnMin= 3 EnMin= -700.213665027219     IErMin= 3 ErrMin= 1.18D-02
 ErrMax= 1.18D-02  0.00D+00 EMaxC= 1.00D-01 BMatC= 2.33D-02 BMatP= 4.89D-02
 IDIUse=3 WtCom= 8.82D-01 WtEn= 1.18D-01
 Coeff-Com: -0.261D+00 0.870D+00 0.391D+00
 Coeff-En:   0.000D+00 0.000D+00 0.100D+01
 Coeff:     -0.230D+00 0.767D+00 0.463D+00
 Gap=     0.253 Goal=   None    Shift=    0.000
 RMSDP=1.49D-03 MaxDP=2.93D-02 DE=-1.98D-01 OVMax= 3.84D-02

 Cycle   4  Pass 1  IDiag  1:
 E= -700.228830172656     Delta-E=       -0.015165145437 Rises=F Damp=F
 DIIS: error= 4.59D-03 at cycle   4 NSaved=   4.
 NSaved= 4 IEnMin= 4 EnMin= -700.228830172656     IErMin= 4 ErrMin= 4.59D-03
 ErrMax= 4.59D-03  0.00D+00 EMaxC= 1.00D-01 BMatC= 3.30D-03 BMatP= 2.33D-02
 IDIUse=3 WtCom= 9.54D-01 WtEn= 4.59D-02
 Coeff-Com: -0.389D-01 0.646D-01 0.265D+00 0.709D+00
 Coeff-En:   0.000D+00 0.000D+00 0.140D+00 0.860D+00
 Coeff:     -0.372D-01 0.617D-01 0.259D+00 0.716D+00
 Gap=     0.252 Goal=   None    Shift=    0.000
 RMSDP=4.33D-04 MaxDP=1.25D-02 DE=-1.52D-02 OVMax= 1.08D-02

 Cycle   5  Pass 1  IDiag  1:
 E= -700.231226346426     Delta-E=       -0.002396173770 Rises=F Damp=F
 DIIS: error= 2.88D-04 at cycle   5 NSaved=   5.
 NSaved= 5 IEnMin= 5 EnMin= -700.231226346426     IErMin= 5 ErrMin= 2.88D-04
 ErrMax= 2.88D-04  0.00D+00 EMaxC= 1.00D-01 BMatC= 2.73D-05 BMatP= 3.30D-03
 IDIUse=3 WtCom= 9.97D-01 WtEn= 2.88D-03
 Coeff-Com: -0.128D-01 0.200D-01 0.785D-01 0.242D+00 0.672D+00
 Coeff-En:   0.000D+00 0.000D+00 0.000D+00 0.000D+00 0.100D+01
 Coeff:     -0.128D-01 0.200D-01 0.783D-01 0.241D+00 0.673D+00
 Gap=     0.252 Goal=   None    Shift=    0.000
 RMSDP=6.81D-05 MaxDP=2.71D-03 DE=-2.40D-03 OVMax= 1.21D-03

 Cycle   6  Pass 1  IDiag  1:
 E= -700.231249400273     Delta-E=       -0.000023053847 Rises=F Damp=F
 DIIS: error= 1.22D-04 at cycle   6 NSaved=   6.
 NSaved= 6 IEnMin= 6 EnMin= -700.231249400273     IErMin= 6 ErrMin= 1.22D-04
 ErrMax= 1.22D-04  0.00D+00 EMaxC= 1.00D-01 BMatC= 2.67D-06 BMatP= 2.73D-05
 IDIUse=3 WtCom= 9.99D-01 WtEn= 1.22D-03
 Coeff-Com: -0.618D-03-0.111D-02-0.312D-02 0.262D-02 0.237D+00 0.766D+00
 Coeff-En:   0.000D+00 0.000D+00 0.000D+00 0.000D+00 0.000D+00 0.100D+01
 Coeff:     -0.617D-03-0.111D-02-0.311D-02 0.262D-02 0.236D+00 0.766D+00
 Gap=     0.252 Goal=   None    Shift=    0.000
 RMSDP=1.83D-05 MaxDP=9.00D-04 DE=-2.31D-05 OVMax= 3.40D-04

 Cycle   7  Pass 1  IDiag  1:
 E= -700.231251846578     Delta-E=       -0.000002446305 Rises=F Damp=F
 DIIS: error= 1.09D-05 at cycle   7 NSaved=   7.
 NSaved= 7 IEnMin= 7 EnMin= -700.231251846578     IErMin= 7 ErrMin= 1.09D-05
 ErrMax= 1.09D-05  0.00D+00 EMaxC= 1.00D-01 BMatC= 2.30D-08 BMatP= 2.67D-06
 IDIUse=1 WtCom= 1.00D+00 WtEn= 0.00D+00
 Coeff-Com: -0.166D-03 0.682D-04-0.219D-02-0.455D-02 0.228D-01 0.106D+00
 Coeff-Com:  0.878D+00
 Coeff:     -0.166D-03 0.682D-04-0.219D-02-0.455D-02 0.228D-01 0.106D+00
 Coeff:      0.878D+00
 Gap=     0.252 Goal=   None    Shift=    0.000
 RMSDP=1.38D-06 MaxDP=2.33D-05 DE=-2.45D-06 OVMax= 3.07D-05

 Cycle   8  Pass 1  IDiag  1:
 E= -700.231251864907     Delta-E=       -0.000000018329 Rises=F Damp=F
 DIIS: error= 2.76D-06 at cycle   8 NSaved=   8.
 NSaved= 8 IEnMin= 8 EnMin= -700.231251864907     IErMin= 8 ErrMin= 2.76D-06
 ErrMax= 2.76D-06  0.00D+00 EMaxC= 1.00D-01 BMatC= 1.75D-09 BMatP= 2.30D-08
 IDIUse=1 WtCom= 1.00D+00 WtEn= 0.00D+00
 Coeff-Com: -0.609D-04 0.115D-03-0.316D-03-0.680D-03-0.443D-02-0.118D-01
 Coeff-Com:  0.842D-01 0.933D+00
 Coeff:     -0.609D-04 0.115D-03-0.316D-03-0.680D-03-0.443D-02-0.118D-01
 Coeff:      0.842D-01 0.933D+00
 Gap=     0.252 Goal=   None    Shift=    0.000
 RMSDP=3.78D-07 MaxDP=1.09D-05 DE=-1.83D-08 OVMax= 8.03D-06

 Cycle   9  Pass 1  IDiag  1:
 E= -700.231251866360     Delta-E=       -0.000000001452 Rises=F Damp=F
 DIIS: error= 3.04D-07 at cycle   9 NSaved=   9.
 NSaved= 9 IEnMin= 9 EnMin= -700.231251866360     IErMin= 9 ErrMin= 3.04D-07
 ErrMax= 3.04D-07  0.00D+00 EMaxC= 1.00D-01 BMatC= 2.36D-11 BMatP= 1.75D-09
 IDIUse=1 WtCom= 1.00D+00 WtEn= 0.00D+00
 Coeff-Com: -0.652D-05 0.920D-05-0.224D-04-0.187D-04-0.417D-03-0.137D-02
 Coeff-Com: -0.356D-02 0.306D-01 0.975D+00
 Coeff:     -0.652D-05 0.920D-05-0.224D-04-0.187D-04-0.417D-03-0.137D-02
 Coeff:     -0.356D-02 0.306D-01 0.975D+00
 Gap=     0.252 Goal=   None    Shift=    0.000
 RMSDP=4.98D-08 MaxDP=1.23D-06 DE=-1.45D-09 OVMax= 1.16D-06

 Cycle  10  Pass 1  IDiag  1:
 E= -700.231251866379     Delta-E=       -0.000000000019 Rises=F Damp=F
 DIIS: error= 3.52D-08 at cycle  10 NSaved=  10.
 NSaved=10 IEnMin=10 EnMin= -700.231251866379     IErMin=10 ErrMin= 3.52D-08
 ErrMax= 3.52D-08  0.00D+00 EMaxC= 1.00D-01 BMatC= 2.83D-13 BMatP= 2.36D-11
 IDIUse=1 WtCom= 1.00D+00 WtEn= 0.00D+00
 Coeff-Com:  0.538D-07-0.667D-06 0.458D-05 0.158D-04 0.365D-04 0.802D-05
 Coeff-Com: -0.348D-02-0.243D-01 0.240D+00 0.788D+00
 Coeff:      0.538D-07-0.667D-06 0.458D-05 0.158D-04 0.365D-04 0.802D-05
 Coeff:     -0.348D-02-0.243D-01 0.240D+00 0.788D+00
 Gap=     0.252 Goal=   None    Shift=    0.000
 RMSDP=8.43D-09 MaxDP=1.33D-07 DE=-1.91D-11 OVMax= 1.34D-07

 Error on total polarization charges =  0.03035
 SCF Done:  E(RB3LYP) =  -700.231251866     A.U. after   10 cycles
            NFock= 10  Conv=0.84D-08     -V/T= 2.0067
 KE= 6.955615217421D+02 PE=-2.205449408457D+03 EE= 5.344128294920D+02
 SMD-CDS (non-electrostatic) energy       (kcal/mol) =       1.21
 (included in total energy above)
 Leave Link  502 at Wed Sep 18 00:20:03 2024, MaxMem=   268435456 cpu:        22.1
 (Enter /g100_work/pMI24_ChiCa/g09d1/g09d01/d01/build-node-6-2-59348/src/main/l601.exe)
 Copying SCF densities to generalized density rwf, IOpCl= 0 IROHF=0.

 **********************************************************************

            Population analysis using the SCF density.

 **********************************************************************

 Orbital symmetries:
       Occupied  (A) (B) (A) (B) (A) (A) (B) (A) (B) (A) (B) (A)
                 (B) (A) (B) (A) (B) (A) (B) (A) (B) (A) (B) (A)
                 (B)
       Virtual   (A) (A) (B) (B) (B) (A) (B) (A) (A) (B) (A) (B)
                 (A) (A) (B) (A) (B) (B) (A) (B) (A) (B) (A) (B)
                 (A) (B) (B) (A) (A) (B) (A) (A) (B) (B) (A) (A)
                 (B) (A) (B) (A) (B) (A) (A) (B) (A) (B) (B) (A)
                 (B) (A) (B) (B) (B) (A) (A) (B) (A) (B) (A) (A)
                 (B) (B) (A) (B) (A) (B) (A) (B) (A) (A) (B) (B)
                 (A) (B) (A) (A) (B) (B) (A) (A) (B) (A) (B) (A)
 The electronic state is 1-A.
 Alpha  occ. eigenvalues --  -89.21353 -19.25746 -19.25745 -19.19774 -19.19774
 Alpha  occ. eigenvalues --   -8.22941  -6.19501  -6.19465  -6.19276  -1.18800
 Alpha  occ. eigenvalues --   -1.09910  -1.06605  -1.02574  -0.73623  -0.62449
 Alpha  occ. eigenvalues --   -0.56317  -0.53154  -0.48126  -0.47696  -0.42389
 Alpha  occ. eigenvalues --   -0.40829  -0.39172  -0.36208  -0.34830  -0.32900
 Alpha virt. eigenvalues --   -0.07719   0.01434   0.01934   0.02171   0.04065
 Alpha virt. eigenvalues --    0.04073   0.05857   0.08301   0.13078   0.14742
 Alpha virt. eigenvalues --    0.15419   0.15694   0.17331   0.18257   0.18994
 Alpha virt. eigenvalues --    0.22755   0.22886   0.23696   0.25192   0.26603
 Alpha virt. eigenvalues --    0.27049   0.27922   0.29838   0.29877   0.31186
 Alpha virt. eigenvalues --    0.35247   0.49722   0.52084   0.54836   0.56698
 Alpha virt. eigenvalues --    0.58261   0.71476   0.89700   0.93900   0.94719
 Alpha virt. eigenvalues --    1.00701   1.05785   1.11620   1.12516   1.13999
 Alpha virt. eigenvalues --    1.15517   1.15730   1.19681   1.20572   1.22466
 Alpha virt. eigenvalues --    1.23094   1.26729   1.28989   1.31043   1.43293
 Alpha virt. eigenvalues --    1.44701   1.48260   1.53829   1.54193   1.61610
 Alpha virt. eigenvalues --    1.63874   1.69753   1.70680   1.76499   1.77707
 Alpha virt. eigenvalues --    1.79222   1.80569   1.92998   1.94669   2.03871
 Alpha virt. eigenvalues --    2.12010   2.13930   2.30090   2.33173   2.41657
 Alpha virt. eigenvalues --    2.52784   2.60936   2.62277   2.65761   2.67734
 Alpha virt. eigenvalues --    2.72600   2.80217   3.41155   3.43802   3.96191
 Alpha virt. eigenvalues --    3.97680   4.03159   4.09057   4.14647
          Condensed to atoms (all electrons):
               1          2          3          4          5          6
     1  S   13.693668   0.059405   0.059405   0.273373   0.273373   0.016762
     2  O    0.059405   8.457137  -0.039550  -0.064434  -0.082817   0.251581
     3  O    0.059405  -0.039550   8.457137  -0.082817  -0.064434   0.000004
     4  O    0.273373  -0.064434  -0.082817   8.667739  -0.115304   0.000497
     5  O    0.273373  -0.082817  -0.064434  -0.115304   8.667739   0.002496
     6  H    0.016762   0.251581   0.000004   0.000497   0.002496   0.269419
     7  H    0.016762   0.000004   0.251581   0.002496   0.000497  -0.000012
               7
     1  S    0.016762
     2  O    0.000004
     3  O    0.251581
     4  O    0.002496
     5  O    0.000497
     6  H   -0.000012
     7  H    0.269419
 Mulliken charges:
               1
     1  S    1.607253
     2  O   -0.581327
     3  O   -0.581327
     4  O   -0.681551
     5  O   -0.681551
     6  H    0.459252
     7  H    0.459252
 Sum of Mulliken charges =  -0.00000
 Mulliken charges with hydrogens summed into heavy atoms:
               1
     1  S    1.607253
     2  O   -0.122076
     3  O   -0.122076
     4  O   -0.681551
     5  O   -0.681551
 Electronic spatial extent (au):  <R**2>=            399.4993
 Charge=              0.0000 electrons
 Dipole moment (field-independent basis, Debye):
    X=             -0.0000    Y=             -0.0000    Z=             -3.6490  Tot=              3.6490
 Quadrupole moment (field-independent basis, Debye-Ang):
   XX=            -39.5089   YY=            -25.9411   ZZ=            -40.4219
   XY=             -7.3803   XZ=              0.0000   YZ=              0.0000
 Traceless Quadrupole moment (field-independent basis, Debye-Ang):
   XX=             -4.2183   YY=              9.3495   ZZ=             -5.1313
   XY=             -7.3803   XZ=              0.0000   YZ=              0.0000
 Octapole moment (field-independent basis, Debye-Ang**2):
  XXX=             -0.0000  YYY=             -0.0000  ZZZ=             -3.9442  XYY=              0.0000
  XXY=              0.0000  XXZ=             -9.9602  XZZ=             -0.0000  YZZ=             -0.0000
  YYZ=             -5.9895  XYZ=              5.3525
 Hexadecapole moment (field-independent basis, Debye-Ang**3):
 XXXX=           -155.1783 YYYY=           -120.2962 ZZZZ=           -161.2753 XXXY=             -2.0110
 XXXZ=             -0.0000 YYYX=            -25.7876 YYYZ=              0.0000 ZZZX=             -0.0000
 ZZZY=              0.0000 XXYY=            -42.2773 XXZZ=            -52.7294 YYZZ=            -51.9793
 XXYZ=              0.0000 YYXZ=             -0.0000 ZZXY=             -2.7790
 N-N= 2.752438053562D+02 E-N=-2.205449410426D+03  KE= 6.955615217421D+02
 Symmetry A    KE= 4.697047478670D+02
 Symmetry B    KE= 2.258567738751D+02
 No NMR shielding tensors so no spin-rotation constants.
 Leave Link  601 at Wed Sep 18 00:20:03 2024, MaxMem=   268435456 cpu:         1.6
 (Enter /g100_work/pMI24_ChiCa/g09d1/g09d01/d01/build-node-6-2-59348/src/main/l701.exe)
 Compute integral first derivatives.
 ... and contract with generalized density number  0.
 D1PCM: PCM CHGder 1st derivatives, ID1Alg=3 FixD1E=F DoIter=F DoCFld=F I1PDM=0.
 GePol: Maximum number of non-zero 1st derivatives   =     390
 Leave Link  701 at Wed Sep 18 00:20:03 2024, MaxMem=   268435456 cpu:         4.3
 (Enter /g100_work/pMI24_ChiCa/g09d1/g09d01/d01/build-node-6-2-59348/src/main/l702.exe)
 L702 exits ... SP integral derivatives will be done elsewhere.
 Leave Link  702 at Wed Sep 18 00:20:04 2024, MaxMem=   268435456 cpu:         0.1
 (Enter /g100_work/pMI24_ChiCa/g09d1/g09d01/d01/build-node-6-2-59348/src/main/l703.exe)
 Compute integral first derivatives, UseDBF=F ICtDFT=           0.
 Integral derivatives from FoFJK, PRISM(SPDF).
 Calling FoFJK, ICntrl=      2127 FMM=F ISym2X=1 I1Cent= 0 IOpClX= 0 NMat=1 NMatS=1 NMatT=0.
 FoFJK:  IHMeth= 1 ICntrl=    2127 DoSepK=F KAlg= 0 I1Cent=   0 FoldK=F
 IRaf=         0 NMat=   1 IRICut=       1 DoRegI=T DoRafI=F ISym2E= 1.
 FoFCou: FMM=F IPFlag=           0 FMFlag=      100000 FMFlg1=         800
         NFxFlg=           0 DoJE=F BraDBF=F KetDBF=F FulRan=T
         wScrn=  0.000000 ICntrl=    2127 IOpCl=  0 I1Cent=           0 NGrid=           0
         NMat0=    1 NMatS0=      1 NMatT0=    0 NMatD0=    1 NMtDS0=    0 NMtDT0=    0
 Petite list used in FoFCou.
 Leave Link  703 at Wed Sep 18 00:20:04 2024, MaxMem=   268435456 cpu:         5.1
 (Enter /g100_work/pMI24_ChiCa/g09d1/g09d01/d01/build-node-6-2-59348/src/main/l716.exe)
 Dipole        =-8.88178420D-16-3.10862447D-15-1.43561793D+00
 ***** Axes restored to original set *****
 -------------------------------------------------------------------
 Center     Atomic                   Forces (Hartrees/Bohr)
 Number     Number              X              Y              Z
 -------------------------------------------------------------------
      1       16          -0.067146536    0.000000000   -0.047479771
      2        8           0.032020152   -0.032431266   -0.041271341
      3        8          -0.028237610    0.032431266    0.043946003
      4        8           0.036945997    0.019988147    0.027307523
      5        8           0.038061112   -0.019988147    0.025730512
      6        1          -0.014243314    0.028976470    0.007793699
      7        1           0.002600199   -0.028976470   -0.016026625
 -------------------------------------------------------------------
 Cartesian Forces:  Max     0.067146536 RMS     0.032034768
 Leave Link  716 at Wed Sep 18 00:20:04 2024, MaxMem=   268435456 cpu:         0.1
 (Enter /g100_work/pMI24_ChiCa/g09d1/g09d01/d01/build-node-6-2-59348/src/main/l103.exe)

 GradGradGradGradGradGradGradGradGradGradGradGradGradGradGradGradGradGrad
 Berny optimization.
 FormGI is forming the generalized inverse of G from B-inverse, IUseBI=4.
 Internal  Forces:  Max     0.042964971 RMS     0.025343871
 Search for a local minimum.
 Step number   1 out of a maximum of   30
 All quantities printed in internal units (Hartrees-Bohrs-Radians)
 RMS Force = .25344D-01 SwitMx=.10000D-02 MixMth= 1
 Mixed Optimization -- RFO/linear search
 Second derivative matrix not updated -- first step.
 The second derivative matrix:
                          R1        R2        R3        R4        R5
           R1           0.41169
           R2           0.00000   0.41169
           R3           0.00000   0.00000   0.73458
           R4           0.00000   0.00000   0.00000   0.73458
           R5           0.00000   0.00000   0.00000   0.00000   0.57681
           R6           0.00000   0.00000   0.00000   0.00000   0.00000
           A1           0.00000   0.00000   0.00000   0.00000   0.00000
           A2           0.00000   0.00000   0.00000   0.00000   0.00000
           A3           0.00000   0.00000   0.00000   0.00000   0.00000
           A4           0.00000   0.00000   0.00000   0.00000   0.00000
           A5           0.00000   0.00000   0.00000   0.00000   0.00000
           A6           0.00000   0.00000   0.00000   0.00000   0.00000
           A7           0.00000   0.00000   0.00000   0.00000   0.00000
           A8           0.00000   0.00000   0.00000   0.00000   0.00000
           D1           0.00000   0.00000   0.00000   0.00000   0.00000
           D2           0.00000   0.00000   0.00000   0.00000   0.00000
           D3           0.00000   0.00000   0.00000   0.00000   0.00000
           D4           0.00000   0.00000   0.00000   0.00000   0.00000
           D5           0.00000   0.00000   0.00000   0.00000   0.00000
           D6           0.00000   0.00000   0.00000   0.00000   0.00000
                          R6        A1        A2        A3        A4
           R6           0.57681
           A1           0.00000   0.25000
           A2           0.00000   0.00000   0.25000
           A3           0.00000   0.00000   0.00000   0.25000
           A4           0.00000   0.00000   0.00000   0.00000   0.25000
           A5           0.00000   0.00000   0.00000   0.00000   0.00000
           A6           0.00000   0.00000   0.00000   0.00000   0.00000
           A7           0.00000   0.00000   0.00000   0.00000   0.00000
           A8           0.00000   0.00000   0.00000   0.00000   0.00000
           D1           0.00000   0.00000   0.00000   0.00000   0.00000
           D2           0.00000   0.00000   0.00000   0.00000   0.00000
           D3           0.00000   0.00000   0.00000   0.00000   0.00000
           D4           0.00000   0.00000   0.00000   0.00000   0.00000
           D5           0.00000   0.00000   0.00000   0.00000   0.00000
           D6           0.00000   0.00000   0.00000   0.00000   0.00000
                          A5        A6        A7        A8        D1
           A5           0.25000
           A6           0.00000   0.25000
           A7           0.00000   0.00000   0.16000
           A8           0.00000   0.00000   0.00000   0.16000
           D1           0.00000   0.00000   0.00000   0.00000   0.01825
           D2           0.00000   0.00000   0.00000   0.00000   0.00000
           D3           0.00000   0.00000   0.00000   0.00000   0.00000
           D4           0.00000   0.00000   0.00000   0.00000   0.00000
           D5           0.00000   0.00000   0.00000   0.00000   0.00000
           D6           0.00000   0.00000   0.00000   0.00000   0.00000
                          D2        D3        D4        D5        D6
           D2           0.01825
           D3           0.00000   0.01825
           D4           0.00000   0.00000   0.01825
           D5           0.00000   0.00000   0.00000   0.01825
           D6           0.00000   0.00000   0.00000   0.00000   0.01825
 ITU=  0
     Eigenvalues ---    0.01825   0.01825   0.12684   0.14154   0.16000
     Eigenvalues ---    0.16000   0.18702   0.22436   0.25000   0.41169
     Eigenvalues ---    0.41169   0.57681   0.57681   0.73458   0.73458
 RFO step:  Lambda=-3.85432270D-02 EMin= 1.82525757D-02
 Linear search not attempted -- first point.
 Maximum step size (   0.300) exceeded in Quadratic search.
    -- Step size scaled by   0.951
 Iteration  1 RMS(Cart)=  0.10930398 RMS(Int)=  0.00731152
 Iteration  2 RMS(Cart)=  0.00809358 RMS(Int)=  0.00361114
 Iteration  3 RMS(Cart)=  0.00001186 RMS(Int)=  0.00361112
 Iteration  4 RMS(Cart)=  0.00000006 RMS(Int)=  0.00361112
 ITry= 1 IFail=0 DXMaxC= 1.94D-01 DCOld= 1.00D+10 DXMaxT= 3.00D-01 DXLimC= 3.00D+00 Rises=F
 ClnCor:  largest displacement from symmetrization is 2.91D-13 for atom     7.
 Variable       Old X    -DE/DX   Delta X   Delta X   Delta X     New X
                                 (Linear)    (Quad)   (Total)
    R1        3.13695  -0.03347   0.00000  -0.07073  -0.07073   3.06621
    R2        3.13695  -0.03347   0.00000  -0.07073  -0.07073   3.06621
    R3        2.85349  -0.04296   0.00000  -0.05288  -0.05288   2.80061
    R4        2.85349  -0.04296   0.00000  -0.05288  -0.05288   2.80061
    R5        1.79524   0.03294   0.00000   0.05093   0.05093   1.84617
    R6        1.79524   0.03294   0.00000   0.05093   0.05093   1.84617
    A1        1.91063  -0.03915   0.00000  -0.16958  -0.17664   1.73400
    A2        1.91986  -0.00057   0.00000  -0.01248  -0.01876   1.90110
    A3        1.90601   0.00308   0.00000   0.00076  -0.00595   1.90006
    A4        1.90601   0.00308   0.00000   0.00076  -0.00595   1.90006
    A5        1.91986  -0.00057   0.00000  -0.01248  -0.01876   1.90110
    A6        1.90145   0.03448   0.00000   0.19467   0.19194   2.09339
    A7        1.91063  -0.00605   0.00000  -0.02900  -0.02900   1.88164
    A8        1.91063  -0.00605   0.00000  -0.02900  -0.02900   1.88164
    D1        2.10286  -0.00195   0.00000  -0.02476  -0.02531   2.07754
    D2       -2.08593  -0.02296   0.00000  -0.13743  -0.13424  -2.22017
    D3       -0.00000   0.02083   0.00000   0.09390   0.09127   0.09127
    D4        2.10286  -0.00195   0.00000  -0.02476  -0.02531   2.07754
    D5       -0.00000   0.02083   0.00000   0.09390   0.09127   0.09127
    D6       -2.08593  -0.02296   0.00000  -0.13743  -0.13424  -2.22017
         Item               Value     Threshold  Converged?
 Maximum Force            0.042965     0.000450     NO 
 RMS     Force            0.025344     0.000300     NO 
 Maximum Displacement     0.194390     0.001800     NO 
 RMS     Displacement     0.112568     0.001200     NO 
 Predicted change in Energy=-2.172840D-02
 Lowest energy point so far.  Saving SCF results.
 GradGradGradGradGradGradGradGradGradGradGradGradGradGradGradGradGradGrad

 Leave Link  103 at Wed Sep 18 00:20:04 2024, MaxMem=   268435456 cpu:         1.5
 (Enter /g100_work/pMI24_ChiCa/g09d1/g09d01/d01/build-node-6-2-59348/src/main/l202.exe)
                          Input orientation:                          
 ---------------------------------------------------------------------
 Center     Atomic      Atomic             Coordinates (Angstroms)
 Number     Number       Type             X           Y           Z
 ---------------------------------------------------------------------
      1         16           0       -0.083133   -0.000000   -0.058784
      2          8           0        0.060217   -0.031599    1.557133
      3          8           0        1.488152    0.031599   -0.462271
      4          8           0       -0.669216   -1.282649   -0.514522
      5          8           0       -0.708168    1.282649   -0.459436
      6          1           0       -0.374991    0.768094    1.911419
      7          1           0        1.677106   -0.768094   -0.990684
 ---------------------------------------------------------------------
                    Distance matrix (angstroms):
                    1          2          3          4          5
     1  S    0.000000
     2  O    1.622571   0.000000
     3  O    1.622571   2.474062   0.000000
     4  O    1.482019   2.527638   2.526701   0.000000
     5  O    1.482019   2.526701   2.527638   2.566186   0.000000
     6  H    2.134678   0.976952   3.106143   3.190189   2.448821
     7  H    2.134678   3.106143   0.976952   2.448821   3.190189
                    6          7
     6  H    0.000000
     7  H    3.872102   0.000000
 Stoichiometry    H2O4S
 Framework group  C2[C2(S),X(H2O4)]
 Deg. of freedom     8
 Full point group                 C2      NOp   2
 RotChk:  IX=0 Diff= 3.61D-02
 Largest Abelian subgroup         C2      NOp   2
 Largest concise Abelian subgroup C2      NOp   2
                         Standard orientation:                         
 ---------------------------------------------------------------------
 Center     Atomic      Atomic             Coordinates (Angstroms)
 Number     Number       Type             X           Y           Z
 ---------------------------------------------------------------------
      1         16           0       -0.000000    0.000000    0.134637
      2          8           0       -0.000000    1.237031   -0.915359
      3          8           0        0.000000   -1.237031   -0.915359
      4          8           0        1.283093   -0.000957    0.876292
      5          8           0       -1.283093    0.000957    0.876292
      6          1           0       -0.813241    1.756967   -0.764560
      7          1           0        0.813241   -1.756967   -0.764560
 ---------------------------------------------------------------------
 Rotational constants (GHZ):      4.8263982      4.6291452      4.5666528
 Leave Link  202 at Wed Sep 18 00:20:04 2024, MaxMem=   268435456 cpu:         0.1
 (Enter /g100_work/pMI24_ChiCa/g09d1/g09d01/d01/build-node-6-2-59348/src/main/l301.exe)
 Standard basis: 6-31+G(d,p) (6D, 7F)
 Ernie: Thresh=  0.10000D-02 Tol=  0.10000D-05 Strict=F.
 There are    56 symmetry adapted cartesian basis functions of A   symmetry.
 There are    53 symmetry adapted cartesian basis functions of B   symmetry.
 There are    56 symmetry adapted basis functions of A   symmetry.
 There are    53 symmetry adapted basis functions of B   symmetry.
   109 basis functions,   198 primitive gaussians,   109 cartesian basis functions
    25 alpha electrons       25 beta electrons
       nuclear repulsion energy       280.9641960741 Hartrees.
 IExCor=  402 DFT=T Ex+Corr=B3LYP ExCW=0 ScaHFX=  0.200000
 ScaDFX=  0.800000  0.720000  1.000000  0.810000 ScalE2=  1.000000  1.000000
 IRadAn=      0 IRanWt=     -1 IRanGd=            0 ICorTp=0 IEmpDi=  4
 NAtoms=    7 NActive=    7 NUniq=    4 SFac= 3.06D+00 NAtFMM=   60 NAOKFM=F Big=F
 Integral buffers will be    131072 words long.
 Raffenetti 2 integral format.
 Two-electron integral symmetry is turned on.
 ------------------------------------------------------------------------------
 Polarizable Continuum Model (PCM)
 =================================
 Model                : PCM (using non-symmetric T matrix).
 Atomic radii         : SMD-Coulomb.
 Polarization charges : Total charges.
 Charge compensation  : None.
 Solution method      : On-the-fly selection.
 Cavity type          : VdW (van der Waals Surface) (Alpha=1.000).
 Cavity algorithm     : GePol (No added spheres)
                        Default sphere list used, NSphG=    7.
                        Lebedev-Laikov grids with approx.  5.0 points / Ang**2.
                        Smoothing algorithm: Karplus/York (Gamma=1.0000).
                        Polarization charges: spherical gaussians, with
                                              point-specific exponents (IZeta= 3).
                        Self-potential: point-specific (ISelfS= 7).
                        Self-field    : sphere-specific E.n sum rule (ISelfD= 2).
 1st derivatives      : Analytical E(r).r(x)/FMM algorithm (CHGder, D1EAlg=3).
                        Cavity 1st derivative terms included.
 Solvent              : Water, Eps=  78.355300 Eps(inf)=   1.777849
 ------------------------------------------------------------------------------
 Spheres list:
 ISph  on   Nord     Re0    Alpha      Xe            Ye            Ze
    1   S      1    2.4900  1.000     -0.000000      0.000000      0.134637
    2   O      2    1.5200  1.000     -0.000000      1.237031     -0.915359
    3   O      3    1.5200  1.000      0.000000     -1.237031     -0.915359
    4   O      4    1.5200  1.000      1.283093     -0.000957      0.876292
    5   O      5    1.5200  1.000     -1.283093      0.000957      0.876292
    6   H      6    1.2000  1.000     -0.813241      1.756967     -0.764560
    7   H      7    1.2000  1.000      0.813241     -1.756967     -0.764560
 ------------------------------------------------------------------------------
 GePol: Number of generator spheres                  =       7
 GePol: Total number of spheres                      =       7
 GePol: Number of exposed spheres                    =       7 (100.00%)
 GePol: Number of points                             =     630
 GePol: Average weight of points                     =       0.15
 GePol: Minimum weight of points                     =   0.23D-05
 GePol: Maximum weight of points                     =    0.21991
 GePol: Number of points with low weight             =      18
 GePol: Fraction of low-weight points (<1% of avg)   =       2.86%
 GePol: Cavity surface area                          =     92.852 Ang**2
 GePol: Cavity volume                                =     77.516 Ang**3
 ------------------------------------------------------------------------------
 Atomic radii for non-electrostatic terms: SMD-CDS.
 ------------------------------------------------------------------------------
 PCM non-electrostatic energy =         0.0019099348 Hartrees.
 Nuclear repulsion after PCM non-electrostatic terms =      280.9661060089 Hartrees.
 Leave Link  301 at Wed Sep 18 00:20:04 2024, MaxMem=   268435456 cpu:         0.2
 (Enter /g100_work/pMI24_ChiCa/g09d1/g09d01/d01/build-node-6-2-59348/src/main/l302.exe)
 NPDir=0 NMtPBC=     1 NCelOv=     1 NCel=       1 NClECP=     1 NCelD=      1
         NCelK=      1 NCelE2=     1 NClLst=     1 CellRange=     0.0.
 One-electron integrals computed using PRISM.
 One-electron integral symmetry used in STVInt
 NBasis=   109 RedAO= T EigKep=  1.92D-03  NBF=    56    53
 NBsUse=   109 1.00D-06 EigRej= -1.00D+00 NBFU=    56    53
 Precomputing XC quadrature grid using
 IXCGrd= 4 IRadAn=           0 IRanWt=          -1 IRanGd=           0 AccXCQ= 0.00D+00.
 Generated NRdTot=       0 NPtTot=           0 NUsed=           0 NTot=          32
 NSgBfM=   109   109   109   109   109 MxSgAt=     7 MxSgA2=     7.
 Leave Link  302 at Wed Sep 18 00:20:04 2024, MaxMem=   268435456 cpu:         1.3
 (Enter /g100_work/pMI24_ChiCa/g09d1/g09d01/d01/build-node-6-2-59348/src/main/l303.exe)
 DipDrv:  MaxL=1.
 Leave Link  303 at Wed Sep 18 00:20:04 2024, MaxMem=   268435456 cpu:         0.2
 (Enter /g100_work/pMI24_ChiCa/g09d1/g09d01/d01/build-node-6-2-59348/src/main/l401.exe)
 Initial guess from the checkpoint file:  "/g100_scratch/userexternal/ecabiati/g16_14421777/Gau-59183.chk"
 B after Tr=    -0.000000   -0.000000   -0.000000
         Rot=    0.999989   -0.000000    0.000000   -0.004744 Ang=  -0.54 deg.
 Guess basis will be translated and rotated to current coordinates.
 JPrj=2 DoOrth=T DoCkMO=T.
 Initial guess orbital symmetries:
       Occupied  (A) (B) (A) (B) (A) (A) (B) (A) (B) (A) (B) (A)
                 (B) (A) (B) (A) (B) (A) (B) (A) (B) (A) (B) (A)
                 (B)
       Virtual   (A) (A) (A) (A) (A) (A) (A) (A) (A) (A) (A) (A)
                 (A) (A) (A) (A) (A) (A) (A) (A) (A) (A) (A) (A)
                 (A) (A) (A) (A) (A) (A) (A) (A) (A) (A) (A) (A)
                 (A) (A) (A) (A) (A) (A) (A) (B) (B) (B) (B) (B)
                 (B) (B) (B) (B) (B) (B) (B) (B) (B) (B) (B) (B)
                 (B) (B) (B) (B) (B) (B) (B) (B) (B) (B) (B) (B)
                 (B) (B) (B) (B) (B) (B) (B) (B) (B) (B) (B) (B)
 The electronic state of the initial guess is 1-A.
 Generating alternative initial guess.
 ExpMin= 4.05D-02 ExpMax= 2.19D+04 ExpMxC= 3.30D+03 IAcc=2 IRadAn=         4 AccDes= 0.00D+00
 Harris functional with IExCor=  402 and IRadAn=       4 diagonalized for initial guess.
 HarFok:  IExCor=  402 AccDes= 0.00D+00 IRadAn=         4 IDoV= 1 UseB2=F ITyADJ=14
 ICtDFT=  3500011 ScaDFX=  1.000000  1.000000  1.000000  1.000000
 FoFCou: FMM=F IPFlag=           0 FMFlag=      100000 FMFlg1=           0
         NFxFlg=           0 DoJE=T BraDBF=F KetDBF=T FulRan=T
         wScrn=  0.000000 ICntrl=     500 IOpCl=  0 I1Cent=   200000004 NGrid=           0
         NMat0=    1 NMatS0=      1 NMatT0=    0 NMatD0=    1 NMtDS0=    0 NMtDT0=    0
 Petite list used in FoFCou.
 Harris En= -700.307238391684    
 Leave Link  401 at Wed Sep 18 00:20:05 2024, MaxMem=   268435456 cpu:         1.9
 (Enter /g100_work/pMI24_ChiCa/g09d1/g09d01/d01/build-node-6-2-59348/src/main/l502.exe)
 Closed shell SCF:
 Using DIIS extrapolation, IDIIS=  1040.
 Integral symmetry usage will be decided dynamically.
 Keep R1 ints in memory in symmetry-blocked form, NReq=27032647.
 IVT=       57763 IEndB=       57763 NGot=   268435456 MDV=   259375929
 LenX=   259375929 LenY=   259363607
 Requested convergence on RMS density matrix=1.00D-08 within 128 cycles.
 Requested convergence on MAX density matrix=1.00D-06.
 Requested convergence on             energy=1.00D-06.
 No special actions if energy rises.
 FoFCou: FMM=F IPFlag=           0 FMFlag=           0 FMFlg1=           0
         NFxFlg=           0 DoJE=F BraDBF=F KetDBF=F FulRan=T
         wScrn=  0.000000 ICntrl=     600 IOpCl=  0 I1Cent=           0 NGrid=           0
         NMat0=    1 NMatS0=   5995 NMatT0=    0 NMatD0=    1 NMtDS0=    0 NMtDT0=    0
 Petite list used in FoFCou.

 Cycle   1  Pass 1  IDiag  1:
 Inv3:  Mode=1 IEnd=     1190700.
 Iteration    1 A*A^-1 deviation from unit magnitude is 4.44D-15 for    470.
 Iteration    1 A*A^-1 deviation from orthogonality  is 3.55D-15 for    470     86.
 Iteration    1 A^-1*A deviation from unit magnitude is 4.00D-15 for     98.
 Iteration    1 A^-1*A deviation from orthogonality  is 2.55D-12 for    553    467.
 E= -700.228427636489    
 DIIS: error= 7.12D-03 at cycle   1 NSaved=   1.
 NSaved= 1 IEnMin= 1 EnMin= -700.228427636489     IErMin= 1 ErrMin= 7.12D-03
 ErrMax= 7.12D-03  0.00D+00 EMaxC= 1.00D-01 BMatC= 1.29D-02 BMatP= 1.29D-02
 IDIUse=3 WtCom= 9.29D-01 WtEn= 7.12D-02
 Coeff-Com:  0.100D+01
 Coeff-En:   0.100D+01
 Coeff:      0.100D+01
 Gap=     0.571 Goal=   None    Shift=    0.000
 GapD=    0.571 DampG=2.000 DampE=1.000 DampFc=2.0000 IDamp=-1.
 RMSDP=2.57D-03 MaxDP=3.14D-02              OVMax= 7.28D-02

 Cycle   2  Pass 1  IDiag  1:
 E= -700.250986516804     Delta-E=       -0.022558880315 Rises=F Damp=F
 DIIS: error= 2.83D-03 at cycle   2 NSaved=   2.
 NSaved= 2 IEnMin= 2 EnMin= -700.250986516804     IErMin= 2 ErrMin= 2.83D-03
 ErrMax= 2.83D-03  0.00D+00 EMaxC= 1.00D-01 BMatC= 1.85D-03 BMatP= 1.29D-02
 IDIUse=3 WtCom= 9.72D-01 WtEn= 2.83D-02
 Coeff-Com:  0.124D+00 0.876D+00
 Coeff-En:   0.000D+00 0.100D+01
 Coeff:      0.121D+00 0.879D+00
 Gap=     0.308 Goal=   None    Shift=    0.000
 RMSDP=7.65D-04 MaxDP=1.18D-02 DE=-2.26D-02 OVMax= 2.07D-02

 Cycle   3  Pass 1  IDiag  1:
 E= -700.249720378577     Delta-E=        0.001266138228 Rises=F Damp=F
 DIIS: error= 3.81D-03 at cycle   3 NSaved=   3.
 NSaved= 3 IEnMin= 2 EnMin= -700.250986516804     IErMin= 2 ErrMin= 2.83D-03
 ErrMax= 3.81D-03  0.00D+00 EMaxC= 1.00D-01 BMatC= 3.75D-03 BMatP= 1.85D-03
 IDIUse=3 WtCom= 1.39D-01 WtEn= 8.61D-01
 Coeff-Com: -0.395D-01 0.609D+00 0.430D+00
 Coeff-En:   0.000D+00 0.629D+00 0.371D+00
 Coeff:     -0.551D-02 0.626D+00 0.379D+00
 Gap=     0.311 Goal=   None    Shift=    0.000
 RMSDP=4.56D-04 MaxDP=7.23D-03 DE= 1.27D-03 OVMax= 1.27D-02

 Cycle   4  Pass 1  IDiag  1:
 E= -700.252481462067     Delta-E=       -0.002761083490 Rises=F Damp=F
 DIIS: error= 3.88D-04 at cycle   4 NSaved=   4.
 NSaved= 4 IEnMin= 4 EnMin= -700.252481462067     IErMin= 4 ErrMin= 3.88D-04
 ErrMax= 3.88D-04  0.00D+00 EMaxC= 1.00D-01 BMatC= 3.36D-05 BMatP= 1.85D-03
 IDIUse=3 WtCom= 9.96D-01 WtEn= 3.88D-03
 Coeff-Com: -0.232D-01 0.217D+00 0.132D+00 0.674D+00
 Coeff-En:   0.000D+00 0.000D+00 0.000D+00 0.100D+01
 Coeff:     -0.231D-01 0.216D+00 0.131D+00 0.676D+00
 Gap=     0.310 Goal=   None    Shift=    0.000
 RMSDP=8.63D-05 MaxDP=3.82D-03 DE=-2.76D-03 OVMax= 1.63D-03

 Cycle   5  Pass 1  IDiag  1:
 E= -700.252507435597     Delta-E=       -0.000025973529 Rises=F Damp=F
 DIIS: error= 1.73D-04 at cycle   5 NSaved=   5.
 NSaved= 5 IEnMin= 5 EnMin= -700.252507435597     IErMin= 5 ErrMin= 1.73D-04
 ErrMax= 1.73D-04  0.00D+00 EMaxC= 1.00D-01 BMatC= 7.50D-06 BMatP= 3.36D-05
 IDIUse=3 WtCom= 9.98D-01 WtEn= 1.73D-03
 Coeff-Com: -0.710D-02 0.561D-01 0.300D-01 0.355D+00 0.566D+00
 Coeff-En:   0.000D+00 0.000D+00 0.000D+00 0.763D-01 0.924D+00
 Coeff:     -0.709D-02 0.560D-01 0.300D-01 0.355D+00 0.566D+00
 Gap=     0.310 Goal=   None    Shift=    0.000
 RMSDP=2.93D-05 MaxDP=1.37D-03 DE=-2.60D-05 OVMax= 5.34D-04

 Cycle   6  Pass 1  IDiag  1:
 E= -700.252513029814     Delta-E=       -0.000005594218 Rises=F Damp=F
 DIIS: error= 7.25D-05 at cycle   6 NSaved=   6.
 NSaved= 6 IEnMin= 6 EnMin= -700.252513029814     IErMin= 6 ErrMin= 7.25D-05
 ErrMax= 7.25D-05  0.00D+00 EMaxC= 1.00D-01 BMatC= 6.46D-07 BMatP= 7.50D-06
 IDIUse=1 WtCom= 1.00D+00 WtEn= 0.00D+00
 Coeff-Com: -0.103D-02 0.294D-02 0.861D-04 0.109D+00 0.283D+00 0.606D+00
 Coeff:     -0.103D-02 0.294D-02 0.861D-04 0.109D+00 0.283D+00 0.606D+00
 Gap=     0.310 Goal=   None    Shift=    0.000
 RMSDP=6.69D-06 MaxDP=1.06D-04 DE=-5.59D-06 OVMax= 1.44D-04

 Cycle   7  Pass 1  IDiag  1:
 E= -700.252513482747     Delta-E=       -0.000000452933 Rises=F Damp=F
 DIIS: error= 9.98D-06 at cycle   7 NSaved=   7.
 NSaved= 7 IEnMin= 7 EnMin= -700.252513482747     IErMin= 7 ErrMin= 9.98D-06
 ErrMax= 9.98D-06  0.00D+00 EMaxC= 1.00D-01 BMatC= 2.05D-08 BMatP= 6.46D-07
 IDIUse=1 WtCom= 1.00D+00 WtEn= 0.00D+00
 Coeff-Com:  0.216D-03-0.456D-02-0.295D-02 0.614D-02 0.496D-01 0.207D+00
 Coeff-Com:  0.744D+00
 Coeff:      0.216D-03-0.456D-02-0.295D-02 0.614D-02 0.496D-01 0.207D+00
 Coeff:      0.744D+00
 Gap=     0.310 Goal=   None    Shift=    0.000
 RMSDP=1.79D-06 MaxDP=3.82D-05 DE=-4.53D-07 OVMax= 3.13D-05

 Cycle   8  Pass 1  IDiag  1:
 E= -700.252513499804     Delta-E=       -0.000000017057 Rises=F Damp=F
 DIIS: error= 8.42D-07 at cycle   8 NSaved=   8.
 NSaved= 8 IEnMin= 8 EnMin= -700.252513499804     IErMin= 8 ErrMin= 8.42D-07
 ErrMax= 8.42D-07  0.00D+00 EMaxC= 1.00D-01 BMatC= 1.58D-10 BMatP= 2.05D-08
 IDIUse=1 WtCom= 1.00D+00 WtEn= 0.00D+00
 Coeff-Com:  0.657D-04-0.986D-03-0.613D-03-0.969D-03 0.393D-02 0.303D-01
 Coeff-Com:  0.146D+00 0.822D+00
 Coeff:      0.657D-04-0.986D-03-0.613D-03-0.969D-03 0.393D-02 0.303D-01
 Coeff:      0.146D+00 0.822D+00
 Gap=     0.310 Goal=   None    Shift=    0.000
 RMSDP=1.75D-07 MaxDP=2.68D-06 DE=-1.71D-08 OVMax= 3.16D-06

 Cycle   9  Pass 1  IDiag  1:
 E= -700.252513499946     Delta-E=       -0.000000000142 Rises=F Damp=F
 DIIS: error= 1.35D-07 at cycle   9 NSaved=   9.
 NSaved= 9 IEnMin= 9 EnMin= -700.252513499946     IErMin= 9 ErrMin= 1.35D-07
 ErrMax= 1.35D-07  0.00D+00 EMaxC= 1.00D-01 BMatC= 3.72D-12 BMatP= 1.58D-10
 IDIUse=1 WtCom= 1.00D+00 WtEn= 0.00D+00
 Coeff-Com: -0.250D-05 0.101D-03 0.645D-04-0.375D-03-0.165D-02-0.549D-02
 Coeff-Com: -0.158D-01 0.882D-01 0.935D+00
 Coeff:     -0.250D-05 0.101D-03 0.645D-04-0.375D-03-0.165D-02-0.549D-02
 Coeff:     -0.158D-01 0.882D-01 0.935D+00
 Gap=     0.310 Goal=   None    Shift=    0.000
 RMSDP=4.26D-08 MaxDP=7.11D-07 DE=-1.42D-10 OVMax= 8.06D-07

 Cycle  10  Pass 1  IDiag  1:
 E= -700.252513499966     Delta-E=       -0.000000000020 Rises=F Damp=F
 DIIS: error= 1.13D-08 at cycle  10 NSaved=  10.
 NSaved=10 IEnMin=10 EnMin= -700.252513499966     IErMin=10 ErrMin= 1.13D-08
 ErrMax= 1.13D-08  0.00D+00 EMaxC= 1.00D-01 BMatC= 4.06D-14 BMatP= 3.72D-12
 IDIUse=1 WtCom= 1.00D+00 WtEn= 0.00D+00
 Coeff-Com: -0.897D-06 0.209D-04 0.139D-04-0.452D-04-0.240D-03-0.102D-02
 Coeff-Com: -0.350D-02 0.111D-03 0.101D+00 0.904D+00
 Coeff:     -0.897D-06 0.209D-04 0.139D-04-0.452D-04-0.240D-03-0.102D-02
 Coeff:     -0.350D-02 0.111D-03 0.101D+00 0.904D+00
 Gap=     0.310 Goal=   None    Shift=    0.000
 RMSDP=3.59D-09 MaxDP=6.12D-08 DE=-2.02D-11 OVMax= 7.47D-08

 Error on total polarization charges =  0.02949
 SCF Done:  E(RB3LYP) =  -700.252513500     A.U. after   10 cycles
            NFock= 10  Conv=0.36D-08     -V/T= 2.0065
 KE= 6.957278996925D+02 PE=-2.217039246950D+03 EE= 5.400927277482D+02
 SMD-CDS (non-electrostatic) energy       (kcal/mol) =       1.20
 (included in total energy above)
 Leave Link  502 at Wed Sep 18 00:20:06 2024, MaxMem=   268435456 cpu:        22.2
 (Enter /g100_work/pMI24_ChiCa/g09d1/g09d01/d01/build-node-6-2-59348/src/main/l701.exe)
 Compute integral first derivatives.
 ... and contract with generalized density number  0.
 D1PCM: PCM CHGder 1st derivatives, ID1Alg=3 FixD1E=F DoIter=F DoCFld=F I1PDM=0.
 GePol: Maximum number of non-zero 1st derivatives   =     410
 Leave Link  701 at Wed Sep 18 00:20:06 2024, MaxMem=   268435456 cpu:         4.3
 (Enter /g100_work/pMI24_ChiCa/g09d1/g09d01/d01/build-node-6-2-59348/src/main/l702.exe)
 L702 exits ... SP integral derivatives will be done elsewhere.
 Leave Link  702 at Wed Sep 18 00:20:06 2024, MaxMem=   268435456 cpu:         0.1
 (Enter /g100_work/pMI24_ChiCa/g09d1/g09d01/d01/build-node-6-2-59348/src/main/l703.exe)
 Compute integral first derivatives, UseDBF=F ICtDFT=           0.
 Integral derivatives from FoFJK, PRISM(SPDF).
 Calling FoFJK, ICntrl=      2127 FMM=F ISym2X=1 I1Cent= 0 IOpClX= 0 NMat=1 NMatS=1 NMatT=0.
 FoFJK:  IHMeth= 1 ICntrl=    2127 DoSepK=F KAlg= 0 I1Cent=   0 FoldK=F
 IRaf=         0 NMat=   1 IRICut=       1 DoRegI=T DoRafI=F ISym2E= 1.
 FoFCou: FMM=F IPFlag=           0 FMFlag=      100000 FMFlg1=         800
         NFxFlg=           0 DoJE=F BraDBF=F KetDBF=F FulRan=T
         wScrn=  0.000000 ICntrl=    2127 IOpCl=  0 I1Cent=           0 NGrid=           0
         NMat0=    1 NMatS0=      1 NMatT0=    0 NMatD0=    1 NMtDS0=    0 NMtDT0=    0
 Petite list used in FoFCou.
 Leave Link  703 at Wed Sep 18 00:20:06 2024, MaxMem=   268435456 cpu:         5.1
 (Enter /g100_work/pMI24_ChiCa/g09d1/g09d01/d01/build-node-6-2-59348/src/main/l716.exe)
 Dipole        = 8.88178420D-16 4.44089210D-16-1.10774978D+00
 ***** Axes restored to original set *****
 -------------------------------------------------------------------
 Center     Atomic                   Forces (Hartrees/Bohr)
 Number     Number              X              Y              Z
 -------------------------------------------------------------------
      1       16          -0.013831325   -0.000000000   -0.009780224
      2        8          -0.001925115   -0.000240189   -0.011711981
      3        8          -0.011683867    0.000240189    0.002088977
      4        8           0.011794670    0.021907439    0.008880340
      5        8           0.012304021   -0.021907439    0.008160008
      6        1          -0.000430019    0.001965538    0.004152459
      7        1           0.003771636   -0.001965538   -0.001789579
 -------------------------------------------------------------------
 Cartesian Forces:  Max     0.021907439 RMS     0.009776625
 Leave Link  716 at Wed Sep 18 00:20:07 2024, MaxMem=   268435456 cpu:         0.1
 (Enter /g100_work/pMI24_ChiCa/g09d1/g09d01/d01/build-node-6-2-59348/src/main/l103.exe)

 GradGradGradGradGradGradGradGradGradGradGradGradGradGradGradGradGradGrad
 Berny optimization.
 Using GEDIIS/GDIIS optimizer.
 FormGI is forming the generalized inverse of G from B-inverse, IUseBI=4.
 Internal  Forces:  Max     0.026355486 RMS     0.008993786
 Search for a local minimum.
 Step number   2 out of a maximum of   30
 All quantities printed in internal units (Hartrees-Bohrs-Radians)
 RMS Force = .89938D-02 SwitMx=.10000D-02 MixMth= 1
 Mixed Optimization -- RFO/linear search
 Update second derivatives using D2CorX and points    1    2
 DE= -2.13D-02 DEPred=-2.17D-02 R= 9.79D-01
 TightC=F SS=  1.41D+00  RLast= 3.81D-01 DXNew= 5.0454D-01 1.1434D+00
 Trust test= 9.79D-01 RLast= 3.81D-01 DXMaxT set to 5.05D-01
 The second derivative matrix:
                          R1        R2        R3        R4        R5
           R1           0.40371
           R2          -0.00798   0.40371
           R3          -0.02480  -0.02480   0.69234
           R4          -0.02480  -0.02480  -0.04223   0.69234
           R5           0.00509   0.00509   0.02311   0.02311   0.57510
           R6           0.00509   0.00509   0.02311   0.02311  -0.00171
           A1          -0.01063  -0.01063  -0.03666  -0.03666   0.00601
           A2          -0.00495  -0.00495  -0.00636  -0.00636   0.00505
           A3          -0.00483  -0.00483  -0.00412  -0.00412   0.00535
           A4          -0.00483  -0.00483  -0.00412  -0.00412   0.00535
           A5          -0.00495  -0.00495  -0.00636  -0.00636   0.00505
           A6           0.02143   0.02143   0.04622   0.04622  -0.01792
           A7           0.00502   0.00502   0.00012   0.00012  -0.00645
           A8           0.00502   0.00502   0.00012   0.00012  -0.00645
           D1           0.00097   0.00097   0.00032   0.00032  -0.00119
           D2           0.01518   0.01518   0.00816   0.00816  -0.01785
           D3          -0.01459  -0.01459  -0.00831  -0.00831   0.01706
           D4           0.00097   0.00097   0.00032   0.00032  -0.00119
           D5          -0.01459  -0.01459  -0.00831  -0.00831   0.01706
           D6           0.01518   0.01518   0.00816   0.00816  -0.01785
                          R6        A1        A2        A3        A4
           R6           0.57510
           A1           0.00601   0.23623
           A2           0.00505  -0.00754   0.24926
           A3           0.00535  -0.00756  -0.00018   0.25048
           A4           0.00535  -0.00756  -0.00018   0.00048   0.25048
           A5           0.00505  -0.00754  -0.00074  -0.00018  -0.00018
           A6          -0.01792   0.03066   0.00802   0.00660   0.00660
           A7          -0.00645   0.00830  -0.00090  -0.00180  -0.00180
           A8          -0.00645   0.00830  -0.00090  -0.00180  -0.00180
           D1          -0.00119   0.00158  -0.00010  -0.00026  -0.00026
           D2          -0.01785   0.02429  -0.00069  -0.00300  -0.00300
           D3           0.01706  -0.02329   0.00054   0.00274   0.00274
           D4          -0.00119   0.00158  -0.00010  -0.00026  -0.00026
           D5           0.01706  -0.02329   0.00054   0.00274   0.00274
           D6          -0.01785   0.02429  -0.00069  -0.00300  -0.00300
                          A5        A6        A7        A8        D1
           A5           0.24926
           A6           0.00802   0.20438
           A7          -0.00090  -0.00443   0.16373
           A8          -0.00090  -0.00443   0.00373   0.16373
           D1          -0.00010  -0.00103   0.00059   0.00059   0.01834
           D2          -0.00069  -0.01795   0.00780   0.00780   0.00118
           D3           0.00054   0.01752  -0.00729  -0.00729  -0.00110
           D4          -0.00010  -0.00103   0.00059   0.00059   0.00009
           D5           0.00054   0.01752  -0.00729  -0.00729  -0.00110
           D6          -0.00069  -0.01795   0.00780   0.00780   0.00118
                          D2        D3        D4        D5        D6
           D2           0.03308
           D3          -0.01372   0.03095
           D4           0.00118  -0.00110   0.01834
           D5          -0.01372   0.01270  -0.00110   0.03095
           D6           0.01482  -0.01372   0.00118  -0.01372   0.03308
 ITU=  1  0
 Use linear search instead of GDIIS.
     Eigenvalues ---    0.01825   0.01836   0.15079   0.15542   0.16000
     Eigenvalues ---    0.16280   0.18984   0.21150   0.26394   0.38540
     Eigenvalues ---    0.41169   0.55736   0.57681   0.68340   0.73458
 RFO step:  Lambda=-2.81116535D-03 EMin= 1.82525757D-02
 Quartic linear search produced a step of  0.12115.
 Iteration  1 RMS(Cart)=  0.02058759 RMS(Int)=  0.00065153
 Iteration  2 RMS(Cart)=  0.00043666 RMS(Int)=  0.00046555
 Iteration  3 RMS(Cart)=  0.00000012 RMS(Int)=  0.00046555
 ITry= 1 IFail=0 DXMaxC= 4.16D-02 DCOld= 1.00D+10 DXMaxT= 5.05D-01 DXLimC= 3.00D+00 Rises=F
 ClnCor:  largest displacement from symmetrization is 7.11D-10 for atom     5.
 Variable       Old X    -DE/DX   Delta X   Delta X   Delta X     New X
                                 (Linear)    (Quad)   (Total)
    R1        3.06621  -0.00777  -0.00857  -0.01694  -0.02551   3.04071
    R2        3.06621  -0.00777  -0.00857  -0.01694  -0.02551   3.04071
    R3        2.80061  -0.02636  -0.00641  -0.03756  -0.04397   2.75664
    R4        2.80061  -0.02636  -0.00641  -0.03756  -0.04397   2.75664
    R5        1.84617   0.00331   0.00617   0.00377   0.00994   1.85611
    R6        1.84617   0.00331   0.00617   0.00377   0.00994   1.85611
    A1        1.73400   0.00166  -0.02140   0.02026  -0.00204   1.73195
    A2        1.90110  -0.00101  -0.00227  -0.00277  -0.00584   1.89526
    A3        1.90006  -0.00112  -0.00072  -0.00439  -0.00597   1.89409
    A4        1.90006  -0.00112  -0.00072  -0.00439  -0.00597   1.89409
    A5        1.90110  -0.00101  -0.00227  -0.00277  -0.00584   1.89526
    A6        2.09339   0.00247   0.02325  -0.00171   0.02126   2.11465
    A7        1.88164   0.00590  -0.00351   0.04336   0.03985   1.92148
    A8        1.88164   0.00590  -0.00351   0.04336   0.03985   1.92148
    D1        2.07754  -0.00017  -0.00307   0.00042  -0.00271   2.07483
    D2       -2.22017  -0.00100  -0.01626   0.00370  -0.01212  -2.23229
    D3        0.09127   0.00058   0.01106  -0.00410   0.00658   0.09785
    D4        2.07754  -0.00017  -0.00307   0.00042  -0.00271   2.07483
    D5        0.09127   0.00058   0.01106  -0.00410   0.00658   0.09785
    D6       -2.22017  -0.00100  -0.01626   0.00370  -0.01212  -2.23229
         Item               Value     Threshold  Converged?
 Maximum Force            0.026355     0.000450     NO 
 RMS     Force            0.008994     0.000300     NO 
 Maximum Displacement     0.041559     0.001800     NO 
 RMS     Displacement     0.020604     0.001200     NO 
 Predicted change in Energy=-1.726251D-03
 Lowest energy point so far.  Saving SCF results.
 GradGradGradGradGradGradGradGradGradGradGradGradGradGradGradGradGradGrad

 Leave Link  103 at Wed Sep 18 00:20:07 2024, MaxMem=   268435456 cpu:         1.2
 (Enter /g100_work/pMI24_ChiCa/g09d1/g09d01/d01/build-node-6-2-59348/src/main/l202.exe)
                          Input orientation:                          
 ---------------------------------------------------------------------
 Center     Atomic      Atomic             Coordinates (Angstroms)
 Number     Number       Type             X           Y           Z
 ---------------------------------------------------------------------
      1         16           0       -0.092515    0.000000   -0.065418
      2          8           0        0.051228   -0.027491    1.536985
      3          8           0        1.466160    0.027491   -0.464031
      4          8           0       -0.660505   -1.270294   -0.503254
      5          8           0       -0.694640    1.270294   -0.454979
      6          1           0       -0.372768    0.767785    1.927500
      7          1           0        1.693008   -0.767785   -0.993949
 ---------------------------------------------------------------------
                    Distance matrix (angstroms):
                    1          2          3          4          5
     1  S    0.000000
     2  O    1.609073   0.000000
     3  O    1.609073   2.451351   0.000000
     4  O    1.458753   2.492729   2.491684   0.000000
     5  O    1.458753   2.491684   2.492729   2.541277   0.000000
     6  H    2.154010   0.982211   3.106302   3.185141   2.456079
     7  H    2.154010   3.106302   0.982211   2.456079   3.185141
                    6          7
     6  H    0.000000
     7  H    3.893620   0.000000
 Stoichiometry    H2O4S
 Framework group  C2[C2(S),X(H2O4)]
 Deg. of freedom     8
 Full point group                 C2      NOp   2
 RotChk:  IX=0 Diff= 4.41D-03
 Largest Abelian subgroup         C2      NOp   2
 Largest concise Abelian subgroup C2      NOp   2
                         Standard orientation:                         
 ---------------------------------------------------------------------
 Center     Atomic      Atomic             Coordinates (Angstroms)
 Number     Number       Type             X           Y           Z
 ---------------------------------------------------------------------
      1         16           0        0.000000   -0.000000    0.141181
      2          8           0        0.000000    1.225675   -0.901333
      3          8           0       -0.000000   -1.225675   -0.901333
      4          8           0        1.270638   -0.001063    0.857727
      5          8           0       -1.270638    0.001063    0.857727
      6          1           0       -0.807718    1.771344   -0.780605
      7          1           0        0.807718   -1.771344   -0.780605
 ---------------------------------------------------------------------
 Rotational constants (GHZ):      4.9534661      4.7079702      4.6773131
 Leave Link  202 at Wed Sep 18 00:20:07 2024, MaxMem=   268435456 cpu:         0.1
 (Enter /g100_work/pMI24_ChiCa/g09d1/g09d01/d01/build-node-6-2-59348/src/main/l301.exe)
 Standard basis: 6-31+G(d,p) (6D, 7F)
 Ernie: Thresh=  0.10000D-02 Tol=  0.10000D-05 Strict=F.
 There are    56 symmetry adapted cartesian basis functions of A   symmetry.
 There are    53 symmetry adapted cartesian basis functions of B   symmetry.
 There are    56 symmetry adapted basis functions of A   symmetry.
 There are    53 symmetry adapted basis functions of B   symmetry.
   109 basis functions,   198 primitive gaussians,   109 cartesian basis functions
    25 alpha electrons       25 beta electrons
       nuclear repulsion energy       284.0061801966 Hartrees.
 IExCor=  402 DFT=T Ex+Corr=B3LYP ExCW=0 ScaHFX=  0.200000
 ScaDFX=  0.800000  0.720000  1.000000  0.810000 ScalE2=  1.000000  1.000000
 IRadAn=      0 IRanWt=     -1 IRanGd=            0 ICorTp=0 IEmpDi=  4
 NAtoms=    7 NActive=    7 NUniq=    4 SFac= 3.06D+00 NAtFMM=   60 NAOKFM=F Big=F
 Integral buffers will be    131072 words long.
 Raffenetti 2 integral format.
 Two-electron integral symmetry is turned on.
 ------------------------------------------------------------------------------
 Polarizable Continuum Model (PCM)
 =================================
 Model                : PCM (using non-symmetric T matrix).
 Atomic radii         : SMD-Coulomb.
 Polarization charges : Total charges.
 Charge compensation  : None.
 Solution method      : On-the-fly selection.
 Cavity type          : VdW (van der Waals Surface) (Alpha=1.000).
 Cavity algorithm     : GePol (No added spheres)
                        Default sphere list used, NSphG=    7.
                        Lebedev-Laikov grids with approx.  5.0 points / Ang**2.
                        Smoothing algorithm: Karplus/York (Gamma=1.0000).
                        Polarization charges: spherical gaussians, with
                                              point-specific exponents (IZeta= 3).
                        Self-potential: point-specific (ISelfS= 7).
                        Self-field    : sphere-specific E.n sum rule (ISelfD= 2).
 1st derivatives      : Analytical E(r).r(x)/FMM algorithm (CHGder, D1EAlg=3).
                        Cavity 1st derivative terms included.
 Solvent              : Water, Eps=  78.355300 Eps(inf)=   1.777849
 ------------------------------------------------------------------------------
 Spheres list:
 ISph  on   Nord     Re0    Alpha      Xe            Ye            Ze
    1   S      1    2.4900  1.000      0.000000     -0.000000      0.141181
    2   O      2    1.5200  1.000      0.000000      1.225675     -0.901333
    3   O      3    1.5200  1.000     -0.000000     -1.225675     -0.901333
    4   O      4    1.5200  1.000      1.270638     -0.001063      0.857727
    5   O      5    1.5200  1.000     -1.270638      0.001063      0.857727
    6   H      6    1.2000  1.000     -0.807718      1.771344     -0.780605
    7   H      7    1.2000  1.000      0.807718     -1.771344     -0.780605
 ------------------------------------------------------------------------------
 GePol: Number of generator spheres                  =       7
 GePol: Total number of spheres                      =       7
 GePol: Number of exposed spheres                    =       7 (100.00%)
 GePol: Number of points                             =     632
 GePol: Average weight of points                     =       0.15
 GePol: Minimum weight of points                     =   0.46D-05
 GePol: Maximum weight of points                     =    0.21991
 GePol: Number of points with low weight             =      24
 GePol: Fraction of low-weight points (<1% of avg)   =       3.80%
 GePol: Cavity surface area                          =     92.402 Ang**2
 GePol: Cavity volume                                =     77.099 Ang**3
 ------------------------------------------------------------------------------
 Atomic radii for non-electrostatic terms: SMD-CDS.
 ------------------------------------------------------------------------------
 PCM non-electrostatic energy =         0.0019587732 Hartrees.
 Nuclear repulsion after PCM non-electrostatic terms =      284.0081389698 Hartrees.
 Leave Link  301 at Wed Sep 18 00:20:07 2024, MaxMem=   268435456 cpu:         0.2
 (Enter /g100_work/pMI24_ChiCa/g09d1/g09d01/d01/build-node-6-2-59348/src/main/l302.exe)
 NPDir=0 NMtPBC=     1 NCelOv=     1 NCel=       1 NClECP=     1 NCelD=      1
         NCelK=      1 NCelE2=     1 NClLst=     1 CellRange=     0.0.
 One-electron integrals computed using PRISM.
 One-electron integral symmetry used in STVInt
 NBasis=   109 RedAO= T EigKep=  1.78D-03  NBF=    56    53
 NBsUse=   109 1.00D-06 EigRej= -1.00D+00 NBFU=    56    53
 Precomputing XC quadrature grid using
 IXCGrd= 4 IRadAn=           0 IRanWt=          -1 IRanGd=           0 AccXCQ= 0.00D+00.
 Generated NRdTot=       0 NPtTot=           0 NUsed=           0 NTot=          32
 NSgBfM=   109   109   109   109   109 MxSgAt=     7 MxSgA2=     7.
 Leave Link  302 at Wed Sep 18 00:20:07 2024, MaxMem=   268435456 cpu:         1.3
 (Enter /g100_work/pMI24_ChiCa/g09d1/g09d01/d01/build-node-6-2-59348/src/main/l303.exe)
 DipDrv:  MaxL=1.
 Leave Link  303 at Wed Sep 18 00:20:07 2024, MaxMem=   268435456 cpu:         0.2
 (Enter /g100_work/pMI24_ChiCa/g09d1/g09d01/d01/build-node-6-2-59348/src/main/l401.exe)
 Initial guess from the checkpoint file:  "/g100_scratch/userexternal/ecabiati/g16_14421777/Gau-59183.chk"
 B after Tr=    -0.000000   -0.000000    0.000000
         Rot=    1.000000   -0.000000    0.000000    0.000390 Ang=   0.04 deg.
 Guess basis will be translated and rotated to current coordinates.
 JPrj=2 DoOrth=T DoCkMO=T.
 Initial guess orbital symmetries:
       Occupied  (A) (B) (A) (B) (A) (A) (B) (A) (B) (A) (B) (A)
                 (B) (A) (B) (A) (B) (A) (B) (A) (B) (A) (B) (A)
                 (B)
       Virtual   (A) (A) (A) (A) (A) (A) (A) (A) (A) (A) (A) (A)
                 (A) (A) (A) (A) (A) (A) (A) (A) (A) (A) (A) (A)
                 (A) (A) (A) (A) (A) (A) (A) (A) (A) (A) (A) (A)
                 (A) (A) (A) (A) (A) (A) (A) (B) (B) (B) (B) (B)
                 (B) (B) (B) (B) (B) (B) (B) (B) (B) (B) (B) (B)
[...]
                6             7             8             9            10 
      6  0.361363D+00
      7  0.140637D-01  0.373032D+00
      8 -0.251578D-03 -0.176302D+00  0.450387D+00
      9 -0.210147D-01 -0.328562D-01 -0.777506D-01  0.821554D-01
     10 -0.487285D-02 -0.237868D-01 -0.315127D-01 -0.526510D-02  0.138628D+00
     11 -0.759733D-02 -0.100633D-01  0.629803D-03 -0.421208D-02  0.183131D+00
     12 -0.238783D-01  0.661198D-02  0.244407D-02  0.108085D-01  0.670405D-01
     13 -0.440995D-02 -0.281041D-01  0.448308D-01 -0.707954D-02  0.130629D-01
     14  0.808377D-02  0.926339D-02 -0.815609D-02  0.340885D-02  0.146953D-01
     15 -0.203662D-01  0.628226D-02 -0.418363D-02  0.767311D-02 -0.459958D-03
     16 -0.596057D-01 -0.188060D-02 -0.104171D-02  0.844750D-03  0.375792D-02
     17 -0.168818D+00 -0.241551D-02 -0.184581D-03  0.314154D-02  0.159485D-02
     18 -0.100233D+00 -0.162967D-02  0.237859D-02  0.243261D-02 -0.857722D-03
     19 -0.289797D-02 -0.128049D+00  0.161745D+00 -0.190673D-01  0.667715D-02
     20  0.332455D-02  0.200135D+00 -0.365866D+00  0.596139D-01 -0.304318D-02
     21 -0.115467D-02 -0.309669D-01  0.691747D-01 -0.192307D-01  0.147568D-03
               11            12            13            14            15 
     11  0.473295D+00
     12  0.148474D+00  0.117388D+00
     13 -0.119605D-01 -0.140444D-02  0.161885D+00
     14 -0.291483D-01  0.749043D-02 -0.201026D+00  0.473295D+00
     15 -0.113580D-01  0.137220D-01  0.588177D-01 -0.123166D+00  0.941302D-01
     16  0.223820D-03  0.138165D-03  0.267966D-03  0.169221D-04  0.241356D-02
     17  0.542925D-02  0.575220D-02  0.764361D-03 -0.311560D-02  0.295754D-02
     18  0.359819D-03 -0.384634D-02  0.298659D-02 -0.202179D-03  0.556906D-02
     19  0.184975D-03  0.720598D-03 -0.322756D-02 -0.413847D-03  0.161202D-02
     20 -0.311560D-02  0.265200D-03 -0.595484D-02  0.542925D-02  0.413763D-03
     21 -0.833472D-04 -0.840125D-03  0.260791D-02 -0.910803D-04  0.313914D-02
               16            17            18            19            20 
     16  0.454169D-01
     17  0.119906D+00  0.357220D+00
     18  0.593470D-01  0.161158D+00  0.129111D+00
     19  0.289906D-03  0.455653D-03  0.380264D-03  0.157114D+00
     20 -0.412664D-04 -0.557490D-03 -0.468703D-03 -0.191910D+00  0.357220D+00
     21 -0.344419D-04 -0.117328D-03  0.167640D-03  0.198562D-01 -0.593292D-01
               21 
     21  0.174143D-01
 FormGI is forming the generalized inverse of G from B-inverse, IUseBI=4.
 Force constants in internal coordinates: 
                1             2             3             4             5 
      1  0.289183D+00
      2  0.147957D-01  0.289183D+00
      3  0.159692D-01  0.127308D-01  0.607987D+00
      4  0.127308D-01  0.159692D-01  0.113918D-01  0.607987D+00
      5  0.508752D-02 -0.373252D-02 -0.609484D-02 -0.465355D-02  0.481820D+00
      6 -0.373252D-02  0.508752D-02 -0.465355D-02 -0.609484D-02  0.880075D-03
      7  0.194545D-01  0.194545D-01 -0.158220D-01 -0.158220D-01 -0.423440D-02
      8  0.229860D-01 -0.186075D-01  0.177518D-01 -0.114622D-01  0.393584D-03
      9  0.110413D-01 -0.174718D-01 -0.137778D-01  0.114987D-01 -0.554670D-02
     10 -0.174718D-01  0.110413D-01  0.114987D-01 -0.137778D-01  0.272798D-02
     11 -0.186075D-01  0.229860D-01 -0.114622D-01  0.177518D-01  0.299855D-02
     12 -0.121666D-01 -0.121666D-01  0.758995D-02  0.758995D-02  0.241731D-02
     13  0.502912D-01 -0.464715D-03  0.794808D-02 -0.188636D-02  0.141099D-01
     14 -0.464715D-03  0.502912D-01 -0.188636D-02  0.794808D-02  0.399032D-03
     15 -0.138220D-02  0.585329D-02 -0.135662D-01  0.141496D-01 -0.732068D-03
     16 -0.368644D-02  0.186983D-01 -0.310270D-03 -0.121038D-01  0.709294D-03
     17  0.570086D-02 -0.229704D-01  0.130122D-01 -0.294323D-02  0.207886D-03
     18  0.585329D-02 -0.138220D-02  0.141496D-01 -0.135662D-01  0.215491D-02
     19 -0.229704D-01  0.570086D-02 -0.294323D-02  0.130122D-01  0.270079D-02
     20  0.186983D-01 -0.368644D-02 -0.121038D-01 -0.310270D-03 -0.453562D-02
                6             7             8             9            10 
      6  0.481820D+00
      7 -0.423440D-02  0.207121D+00
      8  0.299855D-02 -0.511032D-01  0.138652D+00
      9  0.272798D-02 -0.321062D-01 -0.125791D-01  0.125502D+00
     10 -0.554670D-02 -0.321062D-01 -0.480280D-01 -0.148101D-01  0.125502D+00
     11  0.393584D-03 -0.511032D-01 -0.989350D-02 -0.480280D-01 -0.125791D-01
     12  0.241731D-02  0.000000D+00 -0.263769D-01 -0.189391D-01 -0.189391D-01
     13  0.399032D-03 -0.691460D-02  0.189325D-01 -0.123514D-01  0.366106D-03
     14  0.141099D-01 -0.691460D-02 -0.316553D-02  0.366107D-03 -0.123514D-01
     15  0.215491D-02  0.782969D-04 -0.835225D-02  0.574166D-02 -0.455234D-01
     16 -0.453562D-02  0.291764D-01 -0.277259D-01 -0.287628D-01  0.613049D-01
     17  0.270079D-02 -0.315042D-01  0.334982D-01  0.254702D-01 -0.914714D-02
     18 -0.732068D-03  0.782966D-04  0.506558D-01 -0.455234D-01  0.574166D-02
     19  0.207886D-03 -0.315042D-01 -0.627659D-01 -0.914714D-02  0.254702D-01
     20  0.709294D-03  0.291764D-01  0.119025D-01  0.613049D-01 -0.287628D-01
               11            12            13            14            15 
     11  0.138652D+00
     12 -0.263769D-01  0.800751D-01
     13 -0.316553D-02  0.119503D-02  0.157581D+00
     14  0.189325D-01  0.119503D-02  0.327150D-03  0.157581D+00
     15  0.506558D-01 -0.341961D-02 -0.583135D-02  0.116828D-01  0.387519D-01
     16  0.119025D-01 -0.347936D-01 -0.785872D-03 -0.607034D-02 -0.149055D-01
     17 -0.627659D-01  0.344288D-01  0.625583D-02 -0.665629D-02 -0.214988D-01
     18 -0.835225D-02 -0.341961D-02  0.116828D-01 -0.583135D-02 -0.184872D-01
     19  0.334982D-01  0.344288D-01 -0.665629D-02  0.625583D-02  0.955733D-02
     20 -0.277259D-01 -0.347936D-01 -0.607034D-02 -0.785873D-03  0.789123D-02
               16            17            18            19            20 
     16  0.539624D-01
     17 -0.313044D-01  0.555097D-01
     18  0.789123D-02  0.955733D-02  0.387519D-01
     19  0.833327D-04 -0.931472D-02 -0.214988D-01  0.555097D-01
     20 -0.730517D-02  0.833324D-04 -0.149055D-01 -0.313044D-01  0.539624D-01
 Leave Link  716 at Wed Sep 18 00:20:41 2024, MaxMem=   268435456 cpu:         0.2
 (Enter /g100_work/pMI24_ChiCa/g09d1/g09d01/d01/build-node-6-2-59348/src/main/l103.exe)

 GradGradGradGradGradGradGradGradGradGradGradGradGradGradGradGradGradGrad
 Berny optimization.
 Red2BG is reusing G-inverse.
 Internal  Forces:  Max     0.000101470 RMS     0.000060183
 Search for a local minimum.
 Step number   1 out of a maximum of    2
 All quantities printed in internal units (Hartrees-Bohrs-Radians)
 Second derivative matrix not updated -- analytic derivatives used.
 The second derivative matrix:
                          R1        R2        R3        R4        R5
           R1           0.28918
           R2           0.01480   0.28918
           R3           0.01597   0.01273   0.60799
           R4           0.01273   0.01597   0.01139   0.60799
           R5           0.00509  -0.00373  -0.00609  -0.00465   0.48182
           R6          -0.00373   0.00509  -0.00465  -0.00609   0.00088
           A1           0.01945   0.01945  -0.01582  -0.01582  -0.00423
           A2           0.02299  -0.01861   0.01775  -0.01146   0.00039
           A3           0.01104  -0.01747  -0.01378   0.01150  -0.00555
           A4          -0.01747   0.01104   0.01150  -0.01378   0.00273
           A5          -0.01861   0.02299  -0.01146   0.01775   0.00300
           A6          -0.01217  -0.01217   0.00759   0.00759   0.00242
           A7           0.05029  -0.00046   0.00795  -0.00189   0.01411
           A8          -0.00046   0.05029  -0.00189   0.00795   0.00040
           D1          -0.00138   0.00585  -0.01357   0.01415  -0.00073
           D2          -0.00369   0.01870  -0.00031  -0.01210   0.00071
           D3           0.00570  -0.02297   0.01301  -0.00294   0.00021
           D4           0.00585  -0.00138   0.01415  -0.01357   0.00215
           D5          -0.02297   0.00570  -0.00294   0.01301   0.00270
           D6           0.01870  -0.00369  -0.01210  -0.00031  -0.00454
                          R6        A1        A2        A3        A4
           R6           0.48182
           A1          -0.00423   0.20712
           A2           0.00300  -0.05110   0.13865
           A3           0.00273  -0.03211  -0.01258   0.12550
           A4          -0.00555  -0.03211  -0.04803  -0.01481   0.12550
           A5           0.00039  -0.05110  -0.00989  -0.04803  -0.01258
           A6           0.00242   0.00000  -0.02638  -0.01894  -0.01894
           A7           0.00040  -0.00691   0.01893  -0.01235   0.00037
           A8           0.01411  -0.00691  -0.00317   0.00037  -0.01235
           D1           0.00215   0.00008  -0.00835   0.00574  -0.04552
           D2          -0.00454   0.02918  -0.02773  -0.02876   0.06130
           D3           0.00270  -0.03150   0.03350   0.02547  -0.00915
           D4          -0.00073   0.00008   0.05066  -0.04552   0.00574
           D5           0.00021  -0.03150  -0.06277  -0.00915   0.02547
           D6           0.00071   0.02918   0.01190   0.06130  -0.02876
                          A5        A6        A7        A8        D1
           A5           0.13865
           A6          -0.02638   0.08008
           A7          -0.00317   0.00120   0.15758
           A8           0.01893   0.00120   0.00033   0.15758
           D1           0.05066  -0.00342  -0.00583   0.01168   0.03875
           D2           0.01190  -0.03479  -0.00079  -0.00607  -0.01491
           D3          -0.06277   0.03443   0.00626  -0.00666  -0.02150
           D4          -0.00835  -0.00342   0.01168  -0.00583  -0.01849
           D5           0.03350   0.03443  -0.00666   0.00626   0.00956
           D6          -0.02773  -0.03479  -0.00607  -0.00079   0.00789
                          D2        D3        D4        D5        D6
           D2           0.05396
           D3          -0.03130   0.05551
           D4           0.00789   0.00956   0.03875
           D5           0.00008  -0.00931  -0.02150   0.05551
           D6          -0.00731   0.00008  -0.01491  -0.03130   0.05396
 ITU=  0
     Eigenvalues ---    0.00395   0.00424   0.12556   0.13178   0.16506
     Eigenvalues ---    0.19193   0.20158   0.22559   0.26108   0.33216
     Eigenvalues ---    0.34785   0.48247   0.48330   0.60374   0.62482
 Angle between quadratic step and forces=  60.69 degrees.
 Linear search not attempted -- first point.
 Iteration  1 RMS(Cart)=  0.00062536 RMS(Int)=  0.00000020
 Iteration  2 RMS(Cart)=  0.00000017 RMS(Int)=  0.00000001
 ITry= 1 IFail=0 DXMaxC= 1.21D-03 DCOld= 1.00D+10 DXMaxT= 3.00D-01 DXLimC= 3.00D+00 Rises=F
 ClnCor:  largest displacement from symmetrization is 7.12D-12 for atom     7.
 Variable       Old X    -DE/DX   Delta X   Delta X   Delta X     New X
                                 (Linear)    (Quad)   (Total)
    R1        3.03724  -0.00002   0.00000  -0.00011  -0.00011   3.03713
    R2        3.03724  -0.00002   0.00000  -0.00011  -0.00011   3.03713
    R3        2.74928  -0.00010   0.00000  -0.00015  -0.00015   2.74914
    R4        2.74928  -0.00010   0.00000  -0.00015  -0.00015   2.74914
    R5        1.85254  -0.00010   0.00000  -0.00020  -0.00020   1.85234
    R6        1.85254  -0.00010   0.00000  -0.00020  -0.00020   1.85234
    A1        1.80664   0.00000   0.00000  -0.00006  -0.00006   1.80658
    A2        1.82886  -0.00003   0.00000  -0.00011  -0.00011   1.82875
    A3        1.92810   0.00008   0.00000   0.00049   0.00049   1.92859
    A4        1.92810   0.00008   0.00000   0.00049   0.00049   1.92859
    A5        1.82886  -0.00003   0.00000  -0.00011  -0.00011   1.82875
    A6        2.12051  -0.00009   0.00000  -0.00061  -0.00061   2.11990
    A7        1.94448   0.00000   0.00000   0.00014   0.00014   1.94462
    A8        1.94448   0.00000   0.00000   0.00014   0.00014   1.94462
    D1        1.20961  -0.00003   0.00000  -0.00082  -0.00082   1.20880
    D2       -3.05223   0.00005   0.00000  -0.00035  -0.00035  -3.05257
    D3       -0.74006  -0.00003   0.00000  -0.00086  -0.00086  -0.74093
    D4        1.20961  -0.00003   0.00000  -0.00082  -0.00082   1.20880
    D5       -0.74006  -0.00003   0.00000  -0.00086  -0.00086  -0.74093
    D6       -3.05223   0.00005   0.00000  -0.00035  -0.00035  -3.05257
         Item               Value     Threshold  Converged?
 Maximum Force            0.000101     0.000450     YES
 RMS     Force            0.000060     0.000300     YES
 Maximum Displacement     0.001208     0.001800     YES
 RMS     Displacement     0.000625     0.001200     YES
 Predicted change in Energy=-1.337349D-07
 Optimization completed.
    -- Stationary point found.
                           ----------------------------
                           !   Optimized Parameters   !
                           ! (Angstroms and Degrees)  !
 --------------------------                            --------------------------
 ! Name  Definition              Value          Derivative Info.                !
 --------------------------------------------------------------------------------
 ! R1    R(1,2)                  1.6072         -DE/DX =    0.0                 !
 ! R2    R(1,3)                  1.6072         -DE/DX =    0.0                 !
 ! R3    R(1,4)                  1.4549         -DE/DX =   -0.0001              !
 ! R4    R(1,5)                  1.4549         -DE/DX =   -0.0001              !
 ! R5    R(2,6)                  0.9803         -DE/DX =   -0.0001              !
 ! R6    R(3,7)                  0.9803         -DE/DX =   -0.0001              !
 ! A1    A(2,1,3)              103.5128         -DE/DX =    0.0                 !
 ! A2    A(2,1,4)              104.7857         -DE/DX =    0.0                 !
 ! A3    A(2,1,5)              110.4722         -DE/DX =    0.0001              !
 ! A4    A(3,1,4)              110.4722         -DE/DX =    0.0001              !
 ! A5    A(3,1,5)              104.7857         -DE/DX =    0.0                 !
 ! A6    A(4,1,5)              121.496          -DE/DX =   -0.0001              !
 ! A7    A(1,2,6)              111.4104         -DE/DX =    0.0                 !
 ! A8    A(1,3,7)              111.4104         -DE/DX =    0.0                 !
 ! D1    D(3,1,2,6)             69.3058         -DE/DX =    0.0                 !
 ! D2    D(4,1,2,6)           -174.8798         -DE/DX =    0.0001              !
 ! D3    D(5,1,2,6)            -42.4026         -DE/DX =    0.0                 !
 ! D4    D(2,1,3,7)             69.3058         -DE/DX =    0.0                 !
 ! D5    D(4,1,3,7)            -42.4026         -DE/DX =    0.0                 !
 ! D6    D(5,1,3,7)           -174.8798         -DE/DX =    0.0001              !
 --------------------------------------------------------------------------------
 GradGradGradGradGradGradGradGradGradGradGradGradGradGradGradGradGradGrad

 Leave Link  103 at Wed Sep 18 00:20:41 2024, MaxMem=   268435456 cpu:         1.0
 (Enter /g100_work/pMI24_ChiCa/g09d1/g09d01/d01/build-node-6-2-59348/src/main/l9999.exe)
 1\1\GINC-R500N003\Freq\RB3LYP\6-31+G(d,p)\H2O4S1\ECABIATI\18-Sep-2024\
 0\\#P Geom=AllCheck Guess=TCheck SCRF=Check GenChk RB3LYP/6-31+G(d,p) 
 Freq\\h2o4s sol\\0,1\S,-0.2105403576,0.,-0.1488745146\O,-0.1229799401,
 -0.1325135502,1.4504954014\O,1.3265468659,0.1325135502,-0.5994450666\O
 ,-0.7645328714,-1.2685046654,-0.5967572153\O,-0.8174723887,1.268504665
 4,-0.521889432\H,0.1662153607,0.7080033312,1.8639245445\H,1.8127300336
 ,-0.7080033312,-0.4645988366\\Version=EM64L-G09RevD.01\State=1-A\HF=-7
 00.2571878\RMSD=4.733e-10\RMSF=6.730e-05\ZeroPoint=0.0377583\Thermal=0
 .0429635\Dipole=1.7625648,0.,1.2463215\DipoleDeriv=3.2519803,-0.036286
 9,0.0171093,-0.025906,3.3747075,0.0366366,0.0171093,0.0513175,3.239882
 2,-0.7255343,0.0368588,-0.1594673,0.0135597,-0.6996759,-0.1906933,-0.0
 450324,-0.0568345,-1.743294,-1.6944776,0.0412978,0.2975408,0.1752674,-
 0.6996759,-0.0763486,0.1831059,-0.0536956,-0.7743507,-0.9329178,-0.204
 3337,-0.0937776,-0.3149199,-1.401999,-0.2307407,-0.0941084,-0.1622106,
 -0.7993407,-0.8732295,0.2210448,-0.1152114,0.3225177,-1.401999,0.21999
 58,-0.1148806,0.1385775,-0.859029,0.4740434,-0.0234134,0.0481377,-0.01
 19535,0.4143211,0.1724102,0.0148936,0.0455785,0.4811122,0.5001356,-0.0
 351674,0.0056686,-0.1585654,0.4143211,0.06874,0.0389127,0.0372672,0.45
 502\Polar=43.1170721,-0.2723186,48.6741608,0.8334601,0.3851167,42.5277
 267\PG=C02 [C2(S1),X(H2O4)]\NImag=0\\0.56806857,-0.01480768,1.04099385
 ,0.08571732,0.02094123,0.50745727,-0.05390036,-0.00727109,-0.01325443,
 0.09382350,-0.00873083,-0.08863694,-0.00012920,0.13207127,0.45038724,-
 0.00813591,0.02495619,-0.19471610,0.06585871,0.14030216,0.36136338,-0.
 18579224,-0.02110523,0.03849491,-0.00541921,0.00048760,0.01406366,0.37
 303152,0.00303208,-0.08863694,0.00818844,-0.00075124,0.01182675,-0.000
 25158,-0.17630190,0.45038724,0.03337640,0.01517398,-0.06282422,0.03004
 708,0.00062442,-0.02101471,-0.03285623,-0.07775060,0.08215536,-0.14178
 620,-0.15386565,-0.05573242,0.00344730,-0.01099923,-0.00487285,-0.0237
 8683,-0.03151266,-0.00526510,0.13862779,-0.15521389,-0.43893412,-0.125
 58311,-0.00630170,-0.00815609,-0.00759733,-0.01006333,0.00062980,-0.00
 421208,0.18313059,0.47329505,-0.05487213,-0.12076458,-0.11335347,-0.01
 823465,-0.04366140,-0.02387831,0.00661198,0.00244407,0.01080853,0.0670
 4048,0.14847408,0.11738770,-0.15127232,0.16514649,-0.05151828,0.007387
 88,0.00819993,-0.00440995,-0.02810412,0.04483077,-0.00707954,0.0130628
 6,-0.01196047,-0.00140444,0.16188529,0.17013886,-0.43893412,0.10447602
 ,0.00732563,0.00062980,0.00808377,0.00926339,-0.00815609,0.00340885,0.
 01469528,-0.02914829,0.00749043,-0.20102623,0.47329505,-0.05237857,0.1
 0481107,-0.10386735,-0.01628703,0.03052511,-0.02036618,0.00628226,-0.0
 0418363,0.00767311,-0.00045996,-0.01135803,0.01372202,0.05881772,-0.12
 316582,0.09413020,-0.00080629,0.00006963,-0.00310329,-0.04704581,-0.11
 913343,-0.05960570,-0.00188060,-0.00104171,0.00084475,0.00375792,0.000
 22382,0.00013817,0.00026797,0.00001692,0.00241356,0.04541690,0.0026107
 8,0.00707413,-0.00407393,-0.12291617,-0.36586618,-0.16881776,-0.002415
 51,-0.00018458,0.00314154,0.00159485,0.00542925,0.00575220,0.00076436,
 -0.00311560,0.00295754,0.11990603,0.35722047,-0.01252028,-0.03378917,-
 0.03320050,-0.04770614,-0.12943609,-0.10023341,-0.00162967,0.00237859,
 0.00243261,-0.00085772,0.00035982,-0.00384634,0.00298659,-0.00020218,0
 .00556906,0.05934696,0.16115773,0.12911095,-0.03451116,0.03183352,-0.0
 0060381,0.00170669,-0.00189532,-0.00289797,-0.12804853,0.16174466,-0.0
 1906735,0.00667715,0.00018498,0.00072060,-0.00322756,-0.00041385,0.001
 61202,0.00028991,0.00045565,0.00038026,0.15711351,0.00297068,0.0070741
 3,-0.00381945,-0.00215671,-0.00018458,0.00332455,0.20013496,-0.3658661
 8,0.05961389,-0.00304318,-0.00311560,0.00026520,-0.00595484,0.00542925
 ,0.00041376,-0.00004127,-0.00055749,-0.00046870,-0.19190964,0.35722047
 ,0.00881318,-0.01132871,0.00050437,-0.00042355,0.00177500,-0.00115467,
 -0.03096691,0.06917471,-0.01923069,0.00014757,-0.00008335,-0.00084012,
 0.00260791,-0.00009108,0.00313914,-0.00003444,-0.00011733,0.00016764,0
 .01985624,-0.05932925,0.01741434\\-0.00004188,0.,-0.00002962,-0.000024
 31,-0.00011637,-0.00002003,-0.00002699,0.00011637,-0.00001624,0.000072
 88,-0.00011806,-0.00008537,-0.00005619,0.00011806,0.00009717,0.0000070
 8,0.00000767,0.00007112,0.00006942,-0.00000767,-0.00001703\\\@


 THERE IS NOTHING NOBLE IN BEING SUPERIOR TO SOME OTHER MAN.
 TRUE NOBILITY IS BEING SUPERIOR TO YOUR FORMER SELF.

                                                   -- HINDU PROVERB
 Job cpu time:       0 days  0 hours  1 minutes 48.4 seconds.
 File lengths (MBytes):  RWF=     24 Int=      0 D2E=      0 Chk=      4 Scr=      1
 Normal termination of Gaussian 09 at Wed Sep 18 00:20:42 2024.
