 Entering Gaussian System, Link 0=/g100_work/pMI24_ChiCa/g09d1/g09d01/d01/build-node-6-2-59348/src/main/g09
 Input=geom.com
 Output=geom.log
 Initial command:
 /g100_work/pMI24_ChiCa/g09d1/g09d01/d01/build-node-6-2-59348/src/main/l1.exe "/g100_scratch/userexternal/ecabiati/g16_14420035/Gau-26619.inp" -scrdir="/g100_scratch/userexternal/ecabiati/g16_14420035/"
 Entering Link 1 = /g100_work/pMI24_ChiCa/g09d1/g09d01/d01/build-node-6-2-59348/src/main/l1.exe PID=     26620.
  
 Copyright (c) 1988,1990,1992,1993,1995,1998,2003,2009,2013,
            Gaussian, Inc.  All Rights Reserved.
  
 This is part of the Gaussian(R) 09 program.  It is based on
 the Gaussian(R) 03 system (copyright 2003, Gaussian, Inc.),
 the Gaussian(R) 98 system (copyright 1998, Gaussian, Inc.),
 the Gaussian(R) 94 system (copyright 1995, Gaussian, Inc.),
 the Gaussian 92(TM) system (copyright 1992, Gaussian, Inc.),
 the Gaussian 90(TM) system (copyright 1990, Gaussian, Inc.),
 the Gaussian 88(TM) system (copyright 1988, Gaussian, Inc.),
 the Gaussian 86(TM) system (copyright 1986, Carnegie Mellon
 University), and the Gaussian 82(TM) system (copyright 1983,
 Carnegie Mellon University). Gaussian is a federally registered
 trademark of Gaussian, Inc.
  
 This software contains proprietary and confidential information,
 including trade secrets, belonging to Gaussian, Inc.
  
 This software is provided under written license and may be
 used, copied, transmitted, or stored only in accord with that
 written license.
  
 The following legend is applicable only to US Government
 contracts under FAR:
  
                    RESTRICTED RIGHTS LEGEND
  
 Use, reproduction and disclosure by the US Government is
 subject to restrictions as set forth in subparagraphs (a)
 and (c) of the Commercial Computer Software - Restricted
 Rights clause in FAR 52.227-19.
  
 Gaussian, Inc.
 340 Quinnipiac St., Bldg. 40, Wallingford CT 06492
  
  
 ---------------------------------------------------------------
 Warning -- This program may not be used in any manner that
 competes with the business of Gaussian, Inc. or will provide
 assistance to any competitor of Gaussian, Inc.  The licensee
 of this program is prohibited from giving any competitor of
 Gaussian, Inc. access to this program.  By using this program,
 the user acknowledges that Gaussian, Inc. is engaged in the
 business of creating and licensing software in the field of
 computational chemistry and represents and warrants to the
 licensee that it is not a competitor of Gaussian, Inc. and that
 it will not use this program in any manner prohibited above.
 ---------------------------------------------------------------
  

 Cite this work as:
 Gaussian 09, Revision D.01,
 M. J. Frisch, G. W. Trucks, H. B. Schlegel, G. E. Scuseria, 
 M. A. Robb, J. R. Cheeseman, G. Scalmani, V. Barone, B. Mennucci, 
 G. A. Petersson, H. Nakatsuji, M. Caricato, X. Li, H. P. Hratchian, 
 A. F. Izmaylov, J. Bloino, G. Zheng, J. L. Sonnenberg, M. Hada, 
 M. Ehara, K. Toyota, R. Fukuda, J. Hasegawa, M. Ishida, T. Nakajima, 
 Y. Honda, O. Kitao, H. Nakai, T. Vreven, J. A. Montgomery, Jr., 
 J. E. Peralta, F. Ogliaro, M. Bearpark, J. J. Heyd, E. Brothers, 
 K. N. Kudin, V. N. Staroverov, T. Keith, R. Kobayashi, J. Normand, 
 K. Raghavachari, A. Rendell, J. C. Burant, S. S. Iyengar, J. Tomasi, 
 M. Cossi, N. Rega, J. M. Millam, M. Klene, J. E. Knox, J. B. Cross, 
 V. Bakken, C. Adamo, J. Jaramillo, R. Gomperts, R. E. Stratmann, 
 O. Yazyev, A. J. Austin, R. Cammi, C. Pomelli, J. W. Ochterski, 
 R. L. Martin, K. Morokuma, V. G. Zakrzewski, G. A. Voth, 
 P. Salvador, J. J. Dannenberg, S. Dapprich, A. D. Daniels, 
 O. Farkas, J. B. Foresman, J. V. Ortiz, J. Cioslowski, 
 and D. J. Fox, Gaussian, Inc., Wallingford CT, 2013.
 
 ******************************************
 Gaussian 09:  EM64L-G09RevD.01 24-Apr-2013
                17-Sep-2024 
 ******************************************
 %nproc=24
 Will use up to   24 processors via shared memory.
 %mem=2Gb
 ------------------------------------------------------
 #p B3LYP/6-31+g(d,p) opt freq scrf=(smd,solvent=water)
 ------------------------------------------------------
 1/14=-1,18=20,19=15,26=3,38=1/1,3;
 2/9=110,12=2,17=6,18=5,40=1/2;
 3/5=1,6=6,7=111,11=2,16=1,25=1,30=1,70=32201,71=1,72=1,74=-5/1,2,3;
 4//1;
 5/5=2,38=5,53=1/2;
 6/7=2,8=2,9=2,10=2,28=1/1;
 7//1,2,3,16;
 1/14=-1,18=20,19=15,26=3/3(2);
 2/9=110/2;
 99//99;
 2/9=110/2;
 3/5=1,6=6,7=111,11=2,16=1,25=1,30=1,70=32205,71=1,72=1,74=-5/1,2,3;
 4/5=5,16=3,69=1/1;
 5/5=2,38=5,53=1/2;
 7//1,2,3,16;
 1/14=-1,18=20,19=15,26=3/3(-5);
 2/9=110/2;
 6/7=2,8=2,9=2,10=2,19=2,28=1/1;
 99/9=1/99;
 Leave Link    1 at Tue Sep 17 19:26:46 2024, MaxMem=   268435456 cpu:         0.2
 (Enter /g100_work/pMI24_ChiCa/g09d1/g09d01/d01/build-node-6-2-59348/src/main/l101.exe)
 ---------
 h2o4s sol
 ---------
 Symbolic Z-matrix:
 Charge =  0 Multiplicity = 1
 s
 o                    1    os2
 o                    1    os3      2    oso3
 o                    1    os4      2    oso4     3    dih4     0
 o                    1    os5      3    oso5     2    dih5     0
 h                    2    ho6      1    hos6     5    dih6     0
 h                    3    ho7      1    hos7     4    dih7     0
       Variables:
  os2                   1.66                     
  os3                   1.66                     
  oso3                109.471                    
  os4                   1.51                     
  oso4                110.                       
  dih4                120.                       
  os5                   1.51                     
  oso5                110.                       
  dih5                120.                       
  ho6                   0.95                     
  hos6                109.471                    
  dih6                180.                       
  ho7                   0.95                     
  hos7                109.471                    
  dih7                180.                       
 
     3 tetrahedral angles replaced.
 NAtoms=      7 NQM=        7 NQMF=       0 NMMI=      0 NMMIF=      0
                NMic=       0 NMicF=      0.
                    Isotopes and Nuclear Properties:
 (Nuclear quadrupole moments (NQMom) in fm**2, nuclear magnetic moments (NMagM)
  in nuclear magnetons)

  Atom         1           2           3           4           5           6           7
 IAtWgt=          32          16          16          16          16           1           1
 AtmWgt=  31.9720718  15.9949146  15.9949146  15.9949146  15.9949146   1.0078250   1.0078250
 NucSpn=           0           0           0           0           0           1           1
 AtZEff=   0.0000000   0.0000000   0.0000000   0.0000000   0.0000000   0.0000000   0.0000000
 NQMom=    0.0000000   0.0000000   0.0000000   0.0000000   0.0000000   0.0000000   0.0000000
 NMagM=    0.0000000   0.0000000   0.0000000   0.0000000   0.0000000   2.7928460   2.7928460
 AtZNuc=  16.0000000   8.0000000   8.0000000   8.0000000   8.0000000   1.0000000   1.0000000
 Leave Link  101 at Tue Sep 17 19:26:46 2024, MaxMem=   268435456 cpu:         0.2
 (Enter /g100_work/pMI24_ChiCa/g09d1/g09d01/d01/build-node-6-2-59348/src/main/l103.exe)

 GradGradGradGradGradGradGradGradGradGradGradGradGradGradGradGradGradGrad
 Berny optimization.
 Initialization pass.
                           ----------------------------
                           !    Initial Parameters    !
                           ! (Angstroms and Degrees)  !
 --------------------------                            --------------------------
 ! Name  Definition              Value          Derivative Info.                !
 --------------------------------------------------------------------------------
 ! R1    R(1,2)                  1.66           estimate D2E/DX2                !
 ! R2    R(1,3)                  1.66           estimate D2E/DX2                !
 ! R3    R(1,4)                  1.51           estimate D2E/DX2                !
 ! R4    R(1,5)                  1.51           estimate D2E/DX2                !
 ! R5    R(2,6)                  0.95           estimate D2E/DX2                !
 ! R6    R(3,7)                  0.95           estimate D2E/DX2                !
 ! A1    A(2,1,3)              109.4712         estimate D2E/DX2                !
 ! A2    A(2,1,4)              110.0            estimate D2E/DX2                !
 ! A3    A(2,1,5)              109.2062         estimate D2E/DX2                !
 ! A4    A(3,1,4)              109.2062         estimate D2E/DX2                !
 ! A5    A(3,1,5)              110.0            estimate D2E/DX2                !
 ! A6    A(4,1,5)              108.945          estimate D2E/DX2                !
 ! A7    A(1,2,6)              109.4712         estimate D2E/DX2                !
 ! A8    A(1,3,7)              109.4712         estimate D2E/DX2                !
 ! D1    D(3,1,2,6)            -59.5151         estimate D2E/DX2                !
 ! D2    D(4,1,2,6)             60.4849         estimate D2E/DX2                !
 ! D3    D(5,1,2,6)            180.0            estimate D2E/DX2                !
 ! D4    D(2,1,3,7)            -59.5151         estimate D2E/DX2                !
 ! D5    D(4,1,3,7)            180.0            estimate D2E/DX2                !
 ! D6    D(5,1,3,7)             60.4849         estimate D2E/DX2                !
 --------------------------------------------------------------------------------
 Trust Radius=3.00D-01 FncErr=1.00D-07 GrdErr=1.00D-06
 Number of steps in this run=     30 maximum allowed number of steps=    100.
 GradGradGradGradGradGradGradGradGradGradGradGradGradGradGradGradGradGrad

 Leave Link  103 at Tue Sep 17 19:26:46 2024, MaxMem=   268435456 cpu:         0.1
 (Enter /g100_work/pMI24_ChiCa/g09d1/g09d01/d01/build-node-6-2-59348/src/main/l202.exe)
                          Input orientation:                          
 ---------------------------------------------------------------------
 Center     Atomic      Atomic             Coordinates (Angstroms)
 Number     Number       Type             X           Y           Z
 ---------------------------------------------------------------------
      1         16           0        0.000000    0.000000    0.000000
      2          8           0        0.000000    0.000000    1.660000
      3          8           0        1.565063    0.000000   -0.553333
      4          8           0       -0.709468   -1.228834   -0.516450
      5          8           0       -0.723403    1.228834   -0.496743
      6          1           0        0.454383   -0.771854    1.976667
      7          1           0        2.015080    0.771854   -0.230492
 ---------------------------------------------------------------------
                    Distance matrix (angstroms):
                    1          2          3          4          5
     1  S    0.000000
     2  O    1.660000   0.000000
     3  O    1.660000   2.710769   0.000000
     4  O    1.510000   2.598137   2.585515   0.000000
     5  O    1.510000   2.585515   2.598137   2.457788   0.000000
     6  H    2.170123   0.950000   2.868844   2.789088   3.392298
     7  H    2.170123   2.868844   0.950000   3.392298   2.789088
                    6          7
     6  H    0.000000
     7  H    3.112934   0.000000
 Stoichiometry    H2O4S
 Framework group  C2[C2(S),X(H2O4)]
 Deg. of freedom     8
 Full point group                 C2      NOp   2
 Largest Abelian subgroup         C2      NOp   2
 Largest concise Abelian subgroup C2      NOp   2
                         Standard orientation:                         
 ---------------------------------------------------------------------
 Center     Atomic      Atomic             Coordinates (Angstroms)
 Number     Number       Type             X           Y           Z
 ---------------------------------------------------------------------
      1         16           0       -0.000000   -0.000000    0.086393
      2          8           0        0.000000    1.355384   -0.872008
      3          8           0       -0.000000   -1.355384   -0.872008
      4          8           0        1.228834   -0.012068    0.963844
      5          8           0       -1.228834    0.012068    0.963844
      6          1           0        0.771854    1.351603   -1.425838
      7          1           0       -0.771854   -1.351603   -1.425838
 ---------------------------------------------------------------------
 Rotational constants (GHZ):      4.6966868      4.5138868      4.1782607
 Leave Link  202 at Tue Sep 17 19:26:46 2024, MaxMem=   268435456 cpu:         0.1
 (Enter /g100_work/pMI24_ChiCa/g09d1/g09d01/d01/build-node-6-2-59348/src/main/l301.exe)
 Standard basis: 6-31+G(d,p) (6D, 7F)
 Ernie: Thresh=  0.10000D-02 Tol=  0.10000D-05 Strict=F.
 There are    56 symmetry adapted cartesian basis functions of A   symmetry.
 There are    53 symmetry adapted cartesian basis functions of B   symmetry.
 There are    56 symmetry adapted basis functions of A   symmetry.
 There are    53 symmetry adapted basis functions of B   symmetry.
   109 basis functions,   198 primitive gaussians,   109 cartesian basis functions
    25 alpha electrons       25 beta electrons
       nuclear repulsion energy       275.2327868720 Hartrees.
 IExCor=  402 DFT=T Ex+Corr=B3LYP ExCW=0 ScaHFX=  0.200000
 ScaDFX=  0.800000  0.720000  1.000000  0.810000 ScalE2=  1.000000  1.000000
 IRadAn=      0 IRanWt=     -1 IRanGd=            0 ICorTp=0 IEmpDi=  4
 NAtoms=    7 NActive=    7 NUniq=    4 SFac= 3.06D+00 NAtFMM=   60 NAOKFM=F Big=F
 Integral buffers will be    131072 words long.
 Raffenetti 2 integral format.
 Two-electron integral symmetry is turned on.
 ------------------------------------------------------------------------------
 Polarizable Continuum Model (PCM)
 =================================
 Model                : PCM (using non-symmetric T matrix).
 Atomic radii         : SMD-Coulomb.
 Polarization charges : Total charges.
 Charge compensation  : None.
 Solution method      : On-the-fly selection.
 Cavity type          : VdW (van der Waals Surface) (Alpha=1.000).
 Cavity algorithm     : GePol (No added spheres)
                        Default sphere list used, NSphG=    7.
                        Lebedev-Laikov grids with approx.  5.0 points / Ang**2.
                        Smoothing algorithm: Karplus/York (Gamma=1.0000).
                        Polarization charges: spherical gaussians, with
                                              point-specific exponents (IZeta= 3).
                        Self-potential: point-specific (ISelfS= 7).
                        Self-field    : sphere-specific E.n sum rule (ISelfD= 2).
 1st derivatives      : Analytical E(r).r(x)/FMM algorithm (CHGder, D1EAlg=3).
                        Cavity 1st derivative terms included.
 Solvent              : Water, Eps=  78.355300 Eps(inf)=   1.777849
 ------------------------------------------------------------------------------
 Spheres list:
 ISph  on   Nord     Re0    Alpha      Xe            Ye            Ze
    1   S      1    2.4900  1.000     -0.000000     -0.000000      0.086393
    2   O      2    1.5200  1.000      0.000000      1.355384     -0.872008
    3   O      3    1.5200  1.000     -0.000000     -1.355384     -0.872008
    4   O      4    1.5200  1.000      1.228834     -0.012068      0.963844
    5   O      5    1.5200  1.000     -1.228834      0.012068      0.963844
    6   H      6    1.2000  1.000      0.771854      1.351603     -1.425838
    7   H      7    1.2000  1.000     -0.771854     -1.351603     -1.425838
 ------------------------------------------------------------------------------
 GePol: Number of generator spheres                  =       7
 GePol: Total number of spheres                      =       7
 GePol: Number of exposed spheres                    =       7 (100.00%)
 GePol: Number of points                             =     634
 GePol: Average weight of points                     =       0.15
 GePol: Minimum weight of points                     =   0.16D-04
 GePol: Maximum weight of points                     =    0.21991
 GePol: Number of points with low weight             =      22
 GePol: Fraction of low-weight points (<1% of avg)   =       3.47%
 GePol: Cavity surface area                          =     93.883 Ang**2
 GePol: Cavity volume                                =     78.436 Ang**3
 ------------------------------------------------------------------------------
 Atomic radii for non-electrostatic terms: SMD-CDS.
 ------------------------------------------------------------------------------
 PCM non-electrostatic energy =         0.0020680655 Hartrees.
 Nuclear repulsion after PCM non-electrostatic terms =      275.2348549375 Hartrees.
 Leave Link  301 at Tue Sep 17 19:26:46 2024, MaxMem=   268435456 cpu:         0.1
 (Enter /g100_work/pMI24_ChiCa/g09d1/g09d01/d01/build-node-6-2-59348/src/main/l302.exe)
 NPDir=0 NMtPBC=     1 NCelOv=     1 NCel=       1 NClECP=     1 NCelD=      1
         NCelK=      1 NCelE2=     1 NClLst=     1 CellRange=     0.0.
 One-electron integrals computed using PRISM.
 One-electron integral symmetry used in STVInt
 NBasis=   109 RedAO= T EigKep=  2.24D-03  NBF=    56    53
 NBsUse=   109 1.00D-06 EigRej= -1.00D+00 NBFU=    56    53
 Precomputing XC quadrature grid using
 IXCGrd= 4 IRadAn=           0 IRanWt=          -1 IRanGd=           0 AccXCQ= 0.00D+00.
 Generated NRdTot=       0 NPtTot=           0 NUsed=           0 NTot=          32
 NSgBfM=   109   109   109   109   109 MxSgAt=     7 MxSgA2=     7.
 Leave Link  302 at Tue Sep 17 19:26:47 2024, MaxMem=   268435456 cpu:         1.4
 (Enter /g100_work/pMI24_ChiCa/g09d1/g09d01/d01/build-node-6-2-59348/src/main/l303.exe)
 DipDrv:  MaxL=1.
 Leave Link  303 at Tue Sep 17 19:26:47 2024, MaxMem=   268435456 cpu:         0.2
 (Enter /g100_work/pMI24_ChiCa/g09d1/g09d01/d01/build-node-6-2-59348/src/main/l401.exe)
 ExpMin= 4.05D-02 ExpMax= 2.19D+04 ExpMxC= 3.30D+03 IAcc=2 IRadAn=         4 AccDes= 0.00D+00
 Harris functional with IExCor=  402 and IRadAn=       4 diagonalized for initial guess.
 HarFok:  IExCor=  402 AccDes= 0.00D+00 IRadAn=         4 IDoV= 1 UseB2=F ITyADJ=14
 ICtDFT=  3500011 ScaDFX=  1.000000  1.000000  1.000000  1.000000
 FoFCou: FMM=F IPFlag=           0 FMFlag=      100000 FMFlg1=           0
         NFxFlg=           0 DoJE=T BraDBF=F KetDBF=T FulRan=T
         wScrn=  0.000000 ICntrl=     500 IOpCl=  0 I1Cent=   200000004 NGrid=           0
         NMat0=    1 NMatS0=      1 NMatT0=    0 NMatD0=    1 NMtDS0=    0 NMtDT0=    0
 Petite list used in FoFCou.
 Harris En= -700.304900748360    
 JPrj=0 DoOrth=F DoCkMO=F.
 Initial guess orbital symmetries:
       Occupied  (A) (B) (A) (A) (B) (A) (B) (A) (B) (A) (B) (A)
                 (B) (A) (B) (A) (B) (A) (B) (A) (B) (A) (B) (A)
                 (B)
       Virtual   (A) (A) (B) (A) (B) (B) (B) (A) (B) (A) (A) (B)
                 (A) (A) (B) (A) (B) (B) (A) (B) (A) (B) (A) (B)
                 (A) (B) (A) (B) (B) (A) (A) (A) (B) (A) (B) (A)
                 (B) (A) (B) (A) (B) (A) (B) (A) (B) (A) (B) (A)
                 (B) (B) (B) (A) (B) (A) (A) (B) (A) (B) (A) (A)
                 (B) (B) (A) (B) (A) (B) (A) (A) (B) (A) (B) (A)
                 (B) (B) (A) (A) (B) (B) (A) (B) (A) (B) (A) (A)
 The electronic state of the initial guess is 1-A.
 Leave Link  401 at Tue Sep 17 19:26:47 2024, MaxMem=   268435456 cpu:         1.5
 (Enter /g100_work/pMI24_ChiCa/g09d1/g09d01/d01/build-node-6-2-59348/src/main/l502.exe)
 Closed shell SCF:
 Using DIIS extrapolation, IDIIS=  1040.
 Integral symmetry usage will be decided dynamically.
 Keep R1 ints in memory in symmetry-blocked form, NReq=27032647.
 IVT=       57763 IEndB=       57763 NGot=   268435456 MDV=   259375929
 LenX=   259375929 LenY=   259363607
 Requested convergence on RMS density matrix=1.00D-08 within 128 cycles.
 Requested convergence on MAX density matrix=1.00D-06.
 Requested convergence on             energy=1.00D-06.
 No special actions if energy rises.
 FoFCou: FMM=F IPFlag=           0 FMFlag=           0 FMFlg1=           0
         NFxFlg=           0 DoJE=F BraDBF=F KetDBF=F FulRan=T
         wScrn=  0.000000 ICntrl=     600 IOpCl=  0 I1Cent=           0 NGrid=           0
         NMat0=    1 NMatS0=   5995 NMatT0=    0 NMatD0=    1 NMtDS0=    0 NMtDT0=    0
 Petite list used in FoFCou.

 Cycle   1  Pass 1  IDiag  1:
 Inv3:  Mode=1 IEnd=     1205868.
 Iteration    1 A*A^-1 deviation from unit magnitude is 3.44D-15 for    376.
 Iteration    1 A*A^-1 deviation from orthogonality  is 2.55D-15 for    383    254.
 Iteration    1 A^-1*A deviation from unit magnitude is 3.33D-15 for    360.
 Iteration    1 A^-1*A deviation from orthogonality  is 2.92D-15 for    632    592.
 E= -699.901374271559    
 DIIS: error= 3.52D-02 at cycle   1 NSaved=   1.
 NSaved= 1 IEnMin= 1 EnMin= -699.901374271559     IErMin= 1 ErrMin= 3.52D-02
 ErrMax= 3.52D-02  0.00D+00 EMaxC= 1.00D-01 BMatC= 4.42D-01 BMatP= 4.42D-01
 IDIUse=3 WtCom= 6.48D-01 WtEn= 3.52D-01
 Coeff-Com:  0.100D+01
 Coeff-En:   0.100D+01
 Coeff:      0.100D+01
 Gap=     0.105 Goal=   None    Shift=    0.000
 GapD=    0.105 DampG=1.000 DampE=0.500 DampFc=0.5000 IDamp=-1.
 Damping current iteration by 5.00D-01
 RMSDP=1.71D-02 MaxDP=7.04D-01              OVMax= 2.90D-01

 Cycle   2  Pass 1  IDiag  1:
 E= -699.915255695012     Delta-E=       -0.013881423454 Rises=F Damp=T
 DIIS: error= 2.13D-02 at cycle   2 NSaved=   2.
 NSaved= 2 IEnMin= 2 EnMin= -699.915255695012     IErMin= 2 ErrMin= 2.13D-02
 ErrMax= 2.13D-02  0.00D+00 EMaxC= 1.00D-01 BMatC= 9.30D-02 BMatP= 4.42D-01
 IDIUse=3 WtCom= 7.87D-01 WtEn= 2.13D-01
 Coeff-Com:  0.300D+00 0.700D+00
 Coeff-En:   0.485D+00 0.515D+00
 Coeff:      0.339D+00 0.661D+00
 Gap=     0.255 Goal=   None    Shift=    0.000
 RMSDP=4.03D-03 MaxDP=1.18D-01 DE=-1.39D-02 OVMax= 2.14D-01

 Cycle   3  Pass 1  IDiag  1:
 E= -700.220283353732     Delta-E=       -0.305027658720 Rises=F Damp=F
 DIIS: error= 1.08D-02 at cycle   3 NSaved=   3.
 NSaved= 3 IEnMin= 3 EnMin= -700.220283353732     IErMin= 3 ErrMin= 1.08D-02
 ErrMax= 1.08D-02  0.00D+00 EMaxC= 1.00D-01 BMatC= 2.05D-02 BMatP= 9.30D-02
 IDIUse=3 WtCom= 8.92D-01 WtEn= 1.08D-01
 Coeff-Com:  0.172D+00 0.380D+00 0.448D+00
 Coeff-En:   0.000D+00 0.000D+00 0.100D+01
 Coeff:      0.154D+00 0.339D+00 0.508D+00
 Gap=     0.257 Goal=   None    Shift=    0.000
 RMSDP=1.43D-03 MaxDP=2.80D-02 DE=-3.05D-01 OVMax= 3.63D-02

 Cycle   4  Pass 1  IDiag  1:
 E= -700.232364005658     Delta-E=       -0.012080651926 Rises=F Damp=F
 DIIS: error= 5.48D-03 at cycle   4 NSaved=   4.
 NSaved= 4 IEnMin= 4 EnMin= -700.232364005658     IErMin= 4 ErrMin= 5.48D-03
 ErrMax= 5.48D-03  0.00D+00 EMaxC= 1.00D-01 BMatC= 4.43D-03 BMatP= 2.05D-02
 IDIUse=3 WtCom= 9.45D-01 WtEn= 5.48D-02
 Coeff-Com:  0.437D-03 0.147D-01 0.313D+00 0.672D+00
 Coeff-En:   0.000D+00 0.000D+00 0.212D+00 0.788D+00
 Coeff:      0.413D-03 0.139D-01 0.308D+00 0.678D+00
 Gap=     0.259 Goal=   None    Shift=    0.000
 RMSDP=4.75D-04 MaxDP=1.05D-02 DE=-1.21D-02 OVMax= 1.25D-02

 Cycle   5  Pass 1  IDiag  1:
 E= -700.235577788573     Delta-E=       -0.003213782916 Rises=F Damp=F
 DIIS: error= 3.78D-04 at cycle   5 NSaved=   5.
 NSaved= 5 IEnMin= 5 EnMin= -700.235577788573     IErMin= 5 ErrMin= 3.78D-04
 ErrMax= 3.78D-04  0.00D+00 EMaxC= 1.00D-01 BMatC= 2.86D-05 BMatP= 4.43D-03
 IDIUse=3 WtCom= 9.96D-01 WtEn= 3.78D-03
 Coeff-Com: -0.471D-03 0.225D-02 0.102D+00 0.242D+00 0.653D+00
 Coeff-En:   0.000D+00 0.000D+00 0.000D+00 0.000D+00 0.100D+01
 Coeff:     -0.469D-03 0.224D-02 0.102D+00 0.242D+00 0.655D+00
 Gap=     0.258 Goal=   None    Shift=    0.000
 RMSDP=7.29D-05 MaxDP=3.08D-03 DE=-3.21D-03 OVMax= 1.22D-03

 Cycle   6  Pass 1  IDiag  1:
 E= -700.235603549462     Delta-E=       -0.000025760888 Rises=F Damp=F
 DIIS: error= 8.54D-05 at cycle   6 NSaved=   6.
 NSaved= 6 IEnMin= 6 EnMin= -700.235603549462     IErMin= 6 ErrMin= 8.54D-05
 ErrMax= 8.54D-05  0.00D+00 EMaxC= 1.00D-01 BMatC= 2.08D-06 BMatP= 2.86D-05
 IDIUse=1 WtCom= 1.00D+00 WtEn= 0.00D+00
 Coeff-Com: -0.303D-03-0.141D-02 0.243D-02 0.861D-02 0.222D+00 0.769D+00
 Coeff:     -0.303D-03-0.141D-02 0.243D-02 0.861D-02 0.222D+00 0.769D+00
 Gap=     0.259 Goal=   None    Shift=    0.000
 RMSDP=1.53D-05 MaxDP=5.30D-04 DE=-2.58D-05 OVMax= 3.15D-04

 Cycle   7  Pass 1  IDiag  1:
 E= -700.235605385034     Delta-E=       -0.000001835572 Rises=F Damp=F
 DIIS: error= 4.98D-06 at cycle   7 NSaved=   7.
 NSaved= 7 IEnMin= 7 EnMin= -700.235605385034     IErMin= 7 ErrMin= 4.98D-06
 ErrMax= 4.98D-06  0.00D+00 EMaxC= 1.00D-01 BMatC= 6.30D-09 BMatP= 2.08D-06
 IDIUse=1 WtCom= 1.00D+00 WtEn= 0.00D+00
 Coeff-Com: -0.506D-04-0.116D-03-0.116D-02-0.209D-02 0.192D-01 0.883D-01
 Coeff-Com:  0.896D+00
 Coeff:     -0.506D-04-0.116D-03-0.116D-02-0.209D-02 0.192D-01 0.883D-01
 Coeff:      0.896D+00
 Gap=     0.259 Goal=   None    Shift=    0.000
 RMSDP=1.09D-06 MaxDP=1.38D-05 DE=-1.84D-06 OVMax= 2.75D-05

 Cycle   8  Pass 1  IDiag  1:
 E= -700.235605391294     Delta-E=       -0.000000006260 Rises=F Damp=F
 DIIS: error= 1.65D-06 at cycle   8 NSaved=   8.
 NSaved= 8 IEnMin= 8 EnMin= -700.235605391294     IErMin= 8 ErrMin= 1.65D-06
 ErrMax= 1.65D-06  0.00D+00 EMaxC= 1.00D-01 BMatC= 6.74D-10 BMatP= 6.30D-09
 IDIUse=1 WtCom= 1.00D+00 WtEn= 0.00D+00
 Coeff-Com: -0.145D-04 0.442D-04-0.358D-03-0.625D-03-0.439D-02-0.109D-01
 Coeff-Com:  0.109D+00 0.907D+00
 Coeff:     -0.145D-04 0.442D-04-0.358D-03-0.625D-03-0.439D-02-0.109D-01
 Coeff:      0.109D+00 0.907D+00
 Gap=     0.259 Goal=   None    Shift=    0.000
 RMSDP=2.50D-07 MaxDP=5.28D-06 DE=-6.26D-09 OVMax= 5.10D-06

 Cycle   9  Pass 1  IDiag  1:
 E= -700.235605391838     Delta-E=       -0.000000000544 Rises=F Damp=F
 DIIS: error= 2.92D-07 at cycle   9 NSaved=   9.
 NSaved= 9 IEnMin= 9 EnMin= -700.235605391838     IErMin= 9 ErrMin= 2.92D-07
 ErrMax= 2.92D-07  0.00D+00 EMaxC= 1.00D-01 BMatC= 1.74D-11 BMatP= 6.74D-10
 IDIUse=1 WtCom= 1.00D+00 WtEn= 0.00D+00
 Coeff-Com: -0.259D-05 0.505D-05-0.178D-04-0.114D-04-0.333D-03-0.591D-03
 Coeff-Com: -0.916D-02-0.587D-02 0.102D+01
 Coeff:     -0.259D-05 0.505D-05-0.178D-04-0.114D-04-0.333D-03-0.591D-03
 Coeff:     -0.916D-02-0.587D-02 0.102D+01
 Gap=     0.259 Goal=   None    Shift=    0.000
 RMSDP=4.22D-08 MaxDP=7.52D-07 DE=-5.44D-10 OVMax= 1.10D-06

 Cycle  10  Pass 1  IDiag  1:
 E= -700.235605391863     Delta-E=       -0.000000000025 Rises=F Damp=F
 DIIS: error= 2.64D-08 at cycle  10 NSaved=  10.
 NSaved=10 IEnMin=10 EnMin= -700.235605391863     IErMin=10 ErrMin= 2.64D-08
 ErrMax= 2.64D-08  0.00D+00 EMaxC= 1.00D-01 BMatC= 1.16D-13 BMatP= 1.74D-11
 IDIUse=1 WtCom= 1.00D+00 WtEn= 0.00D+00
 Coeff-Com: -0.478D-06 0.260D-06 0.185D-05 0.752D-05 0.348D-04 0.145D-03
 Coeff-Com: -0.338D-02-0.185D-01 0.210D+00 0.812D+00
 Coeff:     -0.478D-06 0.260D-06 0.185D-05 0.752D-05 0.348D-04 0.145D-03
 Coeff:     -0.338D-02-0.185D-01 0.210D+00 0.812D+00
 Gap=     0.259 Goal=   None    Shift=    0.000
 RMSDP=4.25D-09 MaxDP=1.09D-07 DE=-2.48D-11 OVMax= 8.73D-08

 Error on total polarization charges =  0.03004
 SCF Done:  E(RB3LYP) =  -700.235605392     A.U. after   10 cycles
            NFock= 10  Conv=0.43D-08     -V/T= 2.0067
 KE= 6.955674360793D+02 PE=-2.205435230240D+03 EE= 5.343973338310D+02
 SMD-CDS (non-electrostatic) energy       (kcal/mol) =       1.30
 (included in total energy above)
 Leave Link  502 at Tue Sep 17 19:26:48 2024, MaxMem=   268435456 cpu:        22.2
 (Enter /g100_work/pMI24_ChiCa/g09d1/g09d01/d01/build-node-6-2-59348/src/main/l601.exe)
 Copying SCF densities to generalized density rwf, IOpCl= 0 IROHF=0.

 **********************************************************************

            Population analysis using the SCF density.

 **********************************************************************

 Orbital symmetries:
       Occupied  (A) (B) (A) (B) (A) (A) (B) (A) (B) (A) (B) (A)
                 (B) (A) (B) (A) (B) (A) (B) (A) (B) (A) (B) (A)
                 (B)
       Virtual   (A) (A) (B) (B) (A) (B) (B) (A) (B) (A) (A) (B)
                 (A) (A) (B) (A) (B) (B) (A) (B) (A) (B) (A) (B)
                 (A) (B) (B) (A) (B) (A) (A) (A) (B) (A) (B) (A)
                 (B) (B) (A) (A) (B) (A) (B) (A) (A) (B) (B) (A)
                 (B) (B) (A) (B) (B) (A) (A) (B) (A) (B) (A) (A)
                 (B) (B) (A) (B) (A) (B) (A) (A) (B) (A) (B) (A)
                 (B) (B) (A) (A) (B) (B) (A) (A) (B) (A) (B) (A)
 The electronic state is 1-A.
 Alpha  occ. eigenvalues --  -89.21169 -19.25818 -19.25818 -19.19885 -19.19885
 Alpha  occ. eigenvalues --   -8.22768  -6.19377  -6.19243  -6.19104  -1.18772
 Alpha  occ. eigenvalues --   -1.09677  -1.07017  -1.02558  -0.72694  -0.64381
 Alpha  occ. eigenvalues --   -0.54242  -0.52678  -0.51317  -0.45352  -0.42480
 Alpha  occ. eigenvalues --   -0.40869  -0.39239  -0.36955  -0.34777  -0.32905
 Alpha virt. eigenvalues --   -0.07051   0.01147   0.01609   0.02407   0.03509
 Alpha virt. eigenvalues --    0.05080   0.05920   0.08577   0.13656   0.15169
 Alpha virt. eigenvalues --    0.15529   0.15669   0.16920   0.17684   0.20138
 Alpha virt. eigenvalues --    0.21228   0.23574   0.24493   0.25024   0.25859
 Alpha virt. eigenvalues --    0.27056   0.27694   0.28021   0.29993   0.31262
 Alpha virt. eigenvalues --    0.38443   0.50030   0.50589   0.54871   0.56986
 Alpha virt. eigenvalues --    0.58819   0.71090   0.89705   0.96038   0.96273
 Alpha virt. eigenvalues --    0.98936   1.04214   1.11606   1.11871   1.14207
 Alpha virt. eigenvalues --    1.14757   1.16568   1.19041   1.20841   1.21307
 Alpha virt. eigenvalues --    1.21492   1.27019   1.27887   1.31587   1.42319
 Alpha virt. eigenvalues --    1.47801   1.47918   1.52626   1.53076   1.59865
 Alpha virt. eigenvalues --    1.66803   1.68927   1.71567   1.76669   1.78466
 Alpha virt. eigenvalues --    1.79823   1.80661   1.93974   1.97650   2.02963
 Alpha virt. eigenvalues --    2.11358   2.13953   2.28372   2.31139   2.43922
 Alpha virt. eigenvalues --    2.52501   2.60016   2.61404   2.65384   2.68382
 Alpha virt. eigenvalues --    2.70439   2.80735   3.40658   3.41320   3.95748
 Alpha virt. eigenvalues --    3.97890   4.02419   4.07784   4.18616
          Condensed to atoms (all electrons):
               1          2          3          4          5          6
     1  S   13.736063   0.032533   0.032533   0.285042   0.285042   0.031616
     2  O    0.032533   8.467284  -0.035866  -0.079404  -0.042783   0.236714
     3  O    0.032533  -0.035866   8.467284  -0.042783  -0.079404  -0.006440
     4  O    0.285042  -0.079404  -0.042783   8.643272  -0.140931  -0.004816
     5  O    0.285042  -0.042783  -0.079404  -0.140931   8.643272   0.006450
     6  H    0.031616   0.236714  -0.006440  -0.004816   0.006450   0.280179
     7  H    0.031616  -0.006440   0.236714   0.006450  -0.004816   0.000206
               7
     1  S    0.031616
     2  O   -0.006440
     3  O    0.236714
     4  O    0.006450
     5  O   -0.004816
     6  H    0.000206
     7  H    0.280179
 Mulliken charges:
               1
     1  S    1.565554
     2  O   -0.572039
     3  O   -0.572039
     4  O   -0.666830
     5  O   -0.666830
     6  H    0.456091
     7  H    0.456091
 Sum of Mulliken charges =  -0.00000
 Mulliken charges with hydrogens summed into heavy atoms:
               1
     1  S    1.565554
     2  O   -0.115947
     3  O   -0.115947
     4  O   -0.666830
     5  O   -0.666830
 Electronic spatial extent (au):  <R**2>=            399.2247
 Charge=              0.0000 electrons
 Dipole moment (field-independent basis, Debye):
    X=              0.0000    Y=              0.0000    Z=             -7.0160  Tot=              7.0160
 Quadrupole moment (field-independent basis, Debye-Ang):
   XX=            -39.4357   YY=            -34.4094   ZZ=            -32.6776
   XY=              5.2268   XZ=              0.0000   YZ=              0.0000
 Traceless Quadrupole moment (field-independent basis, Debye-Ang):
   XX=             -3.9281   YY=              1.0982   ZZ=              2.8299
   XY=              5.2268   XZ=              0.0000   YZ=              0.0000
 Octapole moment (field-independent basis, Debye-Ang**2):
  XXX=              0.0000  YYY=              0.0000  ZZZ=            -19.8434  XYY=              0.0000
  XXY=              0.0000  XXZ=            -12.7565  XZZ=              0.0000  YZZ=              0.0000
  YYZ=             -7.3743  XYZ=             -7.8934
 Hexadecapole moment (field-independent basis, Debye-Ang**3):
 XXXX=           -154.7437 YYYY=           -164.3654 ZZZZ=           -144.8663 XXXY=              2.5762
 XXXZ=             -0.0000 YYYX=              8.8009 YYYZ=              0.0000 ZZZX=             -0.0000
 ZZZY=             -0.0000 XXYY=            -46.8411 XXZZ=            -48.9530 YYZZ=            -40.8546
 XXYZ=              0.0000 YYXZ=             -0.0000 ZZXY=             11.7133
 N-N= 2.752348549375D+02 E-N=-2.205435231771D+03  KE= 6.955674360793D+02
 Symmetry A    KE= 4.697164464398D+02
 Symmetry B    KE= 2.258509896395D+02
 No NMR shielding tensors so no spin-rotation constants.
 Leave Link  601 at Tue Sep 17 19:26:48 2024, MaxMem=   268435456 cpu:         1.6
 (Enter /g100_work/pMI24_ChiCa/g09d1/g09d01/d01/build-node-6-2-59348/src/main/l701.exe)
 Compute integral first derivatives.
 ... and contract with generalized density number  0.
 D1PCM: PCM CHGder 1st derivatives, ID1Alg=3 FixD1E=F DoIter=F DoCFld=F I1PDM=0.
 GePol: Maximum number of non-zero 1st derivatives   =     396
 Leave Link  701 at Tue Sep 17 19:26:48 2024, MaxMem=   268435456 cpu:         4.3
 (Enter /g100_work/pMI24_ChiCa/g09d1/g09d01/d01/build-node-6-2-59348/src/main/l702.exe)
 L702 exits ... SP integral derivatives will be done elsewhere.
 Leave Link  702 at Tue Sep 17 19:26:48 2024, MaxMem=   268435456 cpu:         0.1
 (Enter /g100_work/pMI24_ChiCa/g09d1/g09d01/d01/build-node-6-2-59348/src/main/l703.exe)
 Compute integral first derivatives, UseDBF=F ICtDFT=           0.
 Integral derivatives from FoFJK, PRISM(SPDF).
 Calling FoFJK, ICntrl=      2127 FMM=F ISym2X=1 I1Cent= 0 IOpClX= 0 NMat=1 NMatS=1 NMatT=0.
 FoFJK:  IHMeth= 1 ICntrl=    2127 DoSepK=F KAlg= 0 I1Cent=   0 FoldK=F
 IRaf=         0 NMat=   1 IRICut=       1 DoRegI=T DoRafI=F ISym2E= 1.
 FoFCou: FMM=F IPFlag=           0 FMFlag=      100000 FMFlg1=         800
         NFxFlg=           0 DoJE=F BraDBF=F KetDBF=F FulRan=T
         wScrn=  0.000000 ICntrl=    2127 IOpCl=  0 I1Cent=           0 NGrid=           0
         NMat0=    1 NMatS0=      1 NMatT0=    0 NMatD0=    1 NMtDS0=    0 NMtDT0=    0
 Petite list used in FoFCou.
 Leave Link  703 at Tue Sep 17 19:26:49 2024, MaxMem=   268435456 cpu:         5.0
 (Enter /g100_work/pMI24_ChiCa/g09d1/g09d01/d01/build-node-6-2-59348/src/main/l716.exe)
 Dipole        =-2.22044605D-16 1.77635684D-15-2.76030811D+00
 ***** Axes restored to original set *****
 -------------------------------------------------------------------
 Center     Atomic                   Forces (Hartrees/Bohr)
 Number     Number              X              Y              Z
 -------------------------------------------------------------------
      1       16          -0.064022401   -0.000000000   -0.045270674
      2        8          -0.005500528    0.031930629   -0.042087974
      3        8          -0.041514432   -0.031930629    0.008843378
      4        8           0.042692089    0.023246955    0.023180413
      5        8           0.036085399   -0.023246955    0.032523683
      6        1           0.015515531   -0.027606075    0.012274488
      7        1           0.016744342    0.027606075    0.010536687
 -------------------------------------------------------------------
 Cartesian Forces:  Max     0.064022401 RMS     0.030782225
 Leave Link  716 at Tue Sep 17 19:26:49 2024, MaxMem=   268435456 cpu:         0.1
 (Enter /g100_work/pMI24_ChiCa/g09d1/g09d01/d01/build-node-6-2-59348/src/main/l103.exe)

 GradGradGradGradGradGradGradGradGradGradGradGradGradGradGradGradGradGrad
 Berny optimization.
 FormGI is forming the generalized inverse of G from B-inverse, IUseBI=4.
 Internal  Forces:  Max     0.046905207 RMS     0.024480238
 Search for a local minimum.
 Step number   1 out of a maximum of   30
 All quantities printed in internal units (Hartrees-Bohrs-Radians)
 RMS Force = .24480D-01 SwitMx=.10000D-02 MixMth= 1
 Mixed Optimization -- RFO/linear search
 Second derivative matrix not updated -- first step.
 The second derivative matrix:
                          R1        R2        R3        R4        R5
           R1           0.41169
           R2           0.00000   0.41169
           R3           0.00000   0.00000   0.73458
           R4           0.00000   0.00000   0.00000   0.73458
           R5           0.00000   0.00000   0.00000   0.00000   0.57681
           R6           0.00000   0.00000   0.00000   0.00000   0.00000
           A1           0.00000   0.00000   0.00000   0.00000   0.00000
           A2           0.00000   0.00000   0.00000   0.00000   0.00000
           A3           0.00000   0.00000   0.00000   0.00000   0.00000
           A4           0.00000   0.00000   0.00000   0.00000   0.00000
           A5           0.00000   0.00000   0.00000   0.00000   0.00000
           A6           0.00000   0.00000   0.00000   0.00000   0.00000
           A7           0.00000   0.00000   0.00000   0.00000   0.00000
           A8           0.00000   0.00000   0.00000   0.00000   0.00000
           D1           0.00000   0.00000   0.00000   0.00000   0.00000
           D2           0.00000   0.00000   0.00000   0.00000   0.00000
           D3           0.00000   0.00000   0.00000   0.00000   0.00000
           D4           0.00000   0.00000   0.00000   0.00000   0.00000
           D5           0.00000   0.00000   0.00000   0.00000   0.00000
           D6           0.00000   0.00000   0.00000   0.00000   0.00000
                          R6        A1        A2        A3        A4
           R6           0.57681
           A1           0.00000   0.25000
           A2           0.00000   0.00000   0.25000
           A3           0.00000   0.00000   0.00000   0.25000
           A4           0.00000   0.00000   0.00000   0.00000   0.25000
           A5           0.00000   0.00000   0.00000   0.00000   0.00000
           A6           0.00000   0.00000   0.00000   0.00000   0.00000
           A7           0.00000   0.00000   0.00000   0.00000   0.00000
           A8           0.00000   0.00000   0.00000   0.00000   0.00000
           D1           0.00000   0.00000   0.00000   0.00000   0.00000
           D2           0.00000   0.00000   0.00000   0.00000   0.00000
           D3           0.00000   0.00000   0.00000   0.00000   0.00000
           D4           0.00000   0.00000   0.00000   0.00000   0.00000
           D5           0.00000   0.00000   0.00000   0.00000   0.00000
           D6           0.00000   0.00000   0.00000   0.00000   0.00000
                          A5        A6        A7        A8        D1
           A5           0.25000
           A6           0.00000   0.25000
           A7           0.00000   0.00000   0.16000
           A8           0.00000   0.00000   0.00000   0.16000
           D1           0.00000   0.00000   0.00000   0.00000   0.01825
           D2           0.00000   0.00000   0.00000   0.00000   0.00000
           D3           0.00000   0.00000   0.00000   0.00000   0.00000
           D4           0.00000   0.00000   0.00000   0.00000   0.00000
           D5           0.00000   0.00000   0.00000   0.00000   0.00000
           D6           0.00000   0.00000   0.00000   0.00000   0.00000
                          D2        D3        D4        D5        D6
           D2           0.01825
           D3           0.00000   0.01825
           D4           0.00000   0.00000   0.01825
           D5           0.00000   0.00000   0.00000   0.01825
           D6           0.00000   0.00000   0.00000   0.00000   0.01825
 ITU=  0
     Eigenvalues ---    0.01825   0.01825   0.12684   0.14154   0.16000
     Eigenvalues ---    0.16000   0.18702   0.22436   0.25000   0.41169
     Eigenvalues ---    0.41169   0.57681   0.57681   0.73458   0.73458
 RFO step:  Lambda=-3.30329643D-02 EMin= 1.82525757D-02
 Linear search not attempted -- first point.
 Iteration  1 RMS(Cart)=  0.10121890 RMS(Int)=  0.00630697
 Iteration  2 RMS(Cart)=  0.00708492 RMS(Int)=  0.00290602
 Iteration  3 RMS(Cart)=  0.00001070 RMS(Int)=  0.00290601
 Iteration  4 RMS(Cart)=  0.00000004 RMS(Int)=  0.00290601
 ITry= 1 IFail=0 DXMaxC= 1.62D-01 DCOld= 1.00D+10 DXMaxT= 3.00D-01 DXLimC= 3.00D+00 Rises=F
 ClnCor:  largest displacement from symmetrization is 1.27D-13 for atom     3.
 Variable       Old X    -DE/DX   Delta X   Delta X   Delta X     New X
                                 (Linear)    (Quad)   (Total)
    R1        3.13695  -0.02976   0.00000  -0.06691  -0.06691   3.07004
    R2        3.13695  -0.02976   0.00000  -0.06691  -0.06691   3.07004
    R3        2.85349  -0.04691   0.00000  -0.06111  -0.06111   2.79238
    R4        2.85349  -0.04691   0.00000  -0.06111  -0.06111   2.79238
    R5        1.79524   0.03384   0.00000   0.05549   0.05549   1.85073
    R6        1.79524   0.03384   0.00000   0.05549   0.05549   1.85073
    A1        1.91063  -0.02142   0.00000  -0.11513  -0.12051   1.79013
    A2        1.91986   0.00513   0.00000   0.01134   0.00572   1.92558
    A3        1.90601  -0.01165   0.00000  -0.05379  -0.05781   1.84820
    A4        1.90601  -0.01165   0.00000  -0.05379  -0.05781   1.84820
    A5        1.91986   0.00513   0.00000   0.01134   0.00572   1.92558
    A6        1.90145   0.03478   0.00000   0.20170   0.20075   2.10220
    A7        1.91063   0.00200   0.00000   0.01037   0.01037   1.92100
    A8        1.91063   0.00200   0.00000   0.01037   0.01037   1.92100
    D1       -1.03873   0.00317   0.00000   0.00711   0.00940  -1.02934
    D2        1.05566  -0.02137   0.00000  -0.12398  -0.12247   0.93319
    D3        3.14159   0.01717   0.00000   0.09684   0.09305  -3.04854
    D4       -1.03873   0.00317   0.00000   0.00711   0.00940  -1.02934
    D5        3.14159   0.01717   0.00000   0.09684   0.09305  -3.04854
    D6        1.05566  -0.02137   0.00000  -0.12398  -0.12247   0.93319
         Item               Value     Threshold  Converged?
 Maximum Force            0.046905     0.000450     NO 
 RMS     Force            0.024480     0.000300     NO 
 Maximum Displacement     0.162488     0.001800     NO 
 RMS     Displacement     0.102958     0.001200     NO 
 Predicted change in Energy=-1.846162D-02
 Lowest energy point so far.  Saving SCF results.
 GradGradGradGradGradGradGradGradGradGradGradGradGradGradGradGradGradGrad

 Leave Link  103 at Tue Sep 17 19:26:49 2024, MaxMem=   268435456 cpu:         1.5
 (Enter /g100_work/pMI24_ChiCa/g09d1/g09d01/d01/build-node-6-2-59348/src/main/l202.exe)
                          Input orientation:                          
 ---------------------------------------------------------------------
 Center     Atomic      Atomic             Coordinates (Angstroms)
 Number     Number       Type             X           Y           Z
 ---------------------------------------------------------------------
      1         16           0       -0.066566   -0.000000   -0.047069
      2          8           0        0.031659    0.041722    1.574015
      3          8           0        1.494549   -0.041722   -0.494823
      4          8           0       -0.649900   -1.282273   -0.493151
      5          8           0       -0.681581    1.282273   -0.448348
      6          1           0        0.510154   -0.747315    1.902069
      7          1           0        1.963339    0.747315   -0.153045
 ---------------------------------------------------------------------
                    Distance matrix (angstroms):
                    1          2          3          4          5
     1  S    0.000000
     2  O    1.624593   0.000000
     3  O    1.624593   2.535173   0.000000
     4  O    1.477664   2.547678   2.477424   0.000000
     5  O    1.477664   2.477424   2.547678   2.565133   0.000000
     6  H    2.165693   0.979365   2.685514   2.714587   3.326247
     7  H    2.165693   2.685514   0.979365   3.326247   2.714587
                    6          7
     6  H    0.000000
     7  H    2.927312   0.000000
 Stoichiometry    H2O4S
 Framework group  C2[C2(S),X(H2O4)]
 Deg. of freedom     8
 Full point group                 C2      NOp   2
 RotChk:  IX=0 Diff= 4.66D-02
 Largest Abelian subgroup         C2      NOp   2
 Largest concise Abelian subgroup C2      NOp   2
                         Standard orientation:                         
 ---------------------------------------------------------------------
 Center     Atomic      Atomic             Coordinates (Angstroms)
 Number     Number       Type             X           Y           Z
 ---------------------------------------------------------------------
      1         16           0       -0.000000    0.000000    0.154184
      2          8           0       -0.000000    1.267587   -0.861949
      3          8           0        0.000000   -1.267587   -0.861949
      4          8           0        1.280675   -0.069627    0.888020
      5          8           0       -1.280675    0.069627    0.888020
      6          1           0        0.788333    1.233215   -1.442041
      7          1           0       -0.788333   -1.233215   -1.442041
 ---------------------------------------------------------------------
 Rotational constants (GHZ):      4.7217430      4.6647011      4.6351212
 Leave Link  202 at Tue Sep 17 19:26:49 2024, MaxMem=   268435456 cpu:         0.1
 (Enter /g100_work/pMI24_ChiCa/g09d1/g09d01/d01/build-node-6-2-59348/src/main/l301.exe)
 Standard basis: 6-31+G(d,p) (6D, 7F)
 Ernie: Thresh=  0.10000D-02 Tol=  0.10000D-05 Strict=F.
 There are    56 symmetry adapted cartesian basis functions of A   symmetry.
 There are    53 symmetry adapted cartesian basis functions of B   symmetry.
 There are    56 symmetry adapted basis functions of A   symmetry.
 There are    53 symmetry adapted basis functions of B   symmetry.
   109 basis functions,   198 primitive gaussians,   109 cartesian basis functions
    25 alpha electrons       25 beta electrons
       nuclear repulsion energy       281.0165113144 Hartrees.
 IExCor=  402 DFT=T Ex+Corr=B3LYP ExCW=0 ScaHFX=  0.200000
 ScaDFX=  0.800000  0.720000  1.000000  0.810000 ScalE2=  1.000000  1.000000
 IRadAn=      0 IRanWt=     -1 IRanGd=            0 ICorTp=0 IEmpDi=  4
 NAtoms=    7 NActive=    7 NUniq=    4 SFac= 3.06D+00 NAtFMM=   60 NAOKFM=F Big=F
 Integral buffers will be    131072 words long.
 Raffenetti 2 integral format.
 Two-electron integral symmetry is turned on.
 ------------------------------------------------------------------------------
 Polarizable Continuum Model (PCM)
 =================================
 Model                : PCM (using non-symmetric T matrix).
 Atomic radii         : SMD-Coulomb.
 Polarization charges : Total charges.
 Charge compensation  : None.
 Solution method      : On-the-fly selection.
 Cavity type          : VdW (van der Waals Surface) (Alpha=1.000).
 Cavity algorithm     : GePol (No added spheres)
                        Default sphere list used, NSphG=    7.
                        Lebedev-Laikov grids with approx.  5.0 points / Ang**2.
                        Smoothing algorithm: Karplus/York (Gamma=1.0000).
                        Polarization charges: spherical gaussians, with
                                              point-specific exponents (IZeta= 3).
                        Self-potential: point-specific (ISelfS= 7).
                        Self-field    : sphere-specific E.n sum rule (ISelfD= 2).
 1st derivatives      : Analytical E(r).r(x)/FMM algorithm (CHGder, D1EAlg=3).
                        Cavity 1st derivative terms included.
 Solvent              : Water, Eps=  78.355300 Eps(inf)=   1.777849
 ------------------------------------------------------------------------------
 Spheres list:
 ISph  on   Nord     Re0    Alpha      Xe            Ye            Ze
    1   S      1    2.4900  1.000     -0.000000      0.000000      0.154184
    2   O      2    1.5200  1.000     -0.000000      1.267587     -0.861949
    3   O      3    1.5200  1.000      0.000000     -1.267587     -0.861949
    4   O      4    1.5200  1.000      1.280675     -0.069627      0.888020
    5   O      5    1.5200  1.000     -1.280675      0.069627      0.888020
    6   H      6    1.2000  1.000      0.788333      1.233215     -1.442041
    7   H      7    1.2000  1.000     -0.788333     -1.233215     -1.442041
 ------------------------------------------------------------------------------
 GePol: Number of generator spheres                  =       7
 GePol: Total number of spheres                      =       7
 GePol: Number of exposed spheres                    =       7 (100.00%)
 GePol: Number of points                             =     628
 GePol: Average weight of points                     =       0.15
 GePol: Minimum weight of points                     =   0.16D-09
 GePol: Maximum weight of points                     =    0.21991
 GePol: Number of points with low weight             =      22
 GePol: Fraction of low-weight points (<1% of avg)   =       3.50%
 GePol: Cavity surface area                          =     93.042 Ang**2
 GePol: Cavity volume                                =     77.639 Ang**3
 ------------------------------------------------------------------------------
 Atomic radii for non-electrostatic terms: SMD-CDS.
 ------------------------------------------------------------------------------
 PCM non-electrostatic energy =         0.0020124490 Hartrees.
 Nuclear repulsion after PCM non-electrostatic terms =      281.0185237634 Hartrees.
 Leave Link  301 at Tue Sep 17 19:26:49 2024, MaxMem=   268435456 cpu:         0.2
 (Enter /g100_work/pMI24_ChiCa/g09d1/g09d01/d01/build-node-6-2-59348/src/main/l302.exe)
 NPDir=0 NMtPBC=     1 NCelOv=     1 NCel=       1 NClECP=     1 NCelD=      1
         NCelK=      1 NCelE2=     1 NClLst=     1 CellRange=     0.0.
 One-electron integrals computed using PRISM.
 One-electron integral symmetry used in STVInt
 NBasis=   109 RedAO= T EigKep=  2.08D-03  NBF=    56    53
 NBsUse=   109 1.00D-06 EigRej= -1.00D+00 NBFU=    56    53
 Precomputing XC quadrature grid using
 IXCGrd= 4 IRadAn=           0 IRanWt=          -1 IRanGd=           0 AccXCQ= 0.00D+00.
 Generated NRdTot=       0 NPtTot=           0 NUsed=           0 NTot=          32
 NSgBfM=   109   109   109   109   109 MxSgAt=     7 MxSgA2=     7.
 Leave Link  302 at Tue Sep 17 19:26:49 2024, MaxMem=   268435456 cpu:         1.4
 (Enter /g100_work/pMI24_ChiCa/g09d1/g09d01/d01/build-node-6-2-59348/src/main/l303.exe)
 DipDrv:  MaxL=1.
 Leave Link  303 at Tue Sep 17 19:26:49 2024, MaxMem=   268435456 cpu:         0.2
 (Enter /g100_work/pMI24_ChiCa/g09d1/g09d01/d01/build-node-6-2-59348/src/main/l401.exe)
 Initial guess from the checkpoint file:  "/g100_scratch/userexternal/ecabiati/g16_14420035/Gau-26620.chk"
 B after Tr=    -0.000000    0.000000   -0.000000
         Rot=    0.999931    0.000000    0.000000    0.011782 Ang=   1.35 deg.
 Guess basis will be translated and rotated to current coordinates.
 JPrj=2 DoOrth=T DoCkMO=T.
 Initial guess orbital symmetries:
       Occupied  (A) (B) (A) (B) (A) (A) (B) (A) (B) (A) (B) (A)
                 (B) (A) (B) (A) (B) (A) (B) (A) (B) (A) (B) (A)
                 (B)
       Virtual   (A) (A) (A) (A) (A) (A) (A) (A) (A) (A) (A) (A)
                 (A) (A) (A) (A) (A) (A) (A) (A) (A) (A) (A) (A)
                 (A) (A) (A) (A) (A) (A) (A) (A) (A) (A) (A) (A)
                 (A) (A) (A) (A) (A) (A) (A) (B) (B) (B) (B) (B)
                 (B) (B) (B) (B) (B) (B) (B) (B) (B) (B) (B) (B)
                 (B) (B) (B) (B) (B) (B) (B) (B) (B) (B) (B) (B)
                 (B) (B) (B) (B) (B) (B) (B) (B) (B) (B) (B) (B)
 The electronic state of the initial guess is 1-A.
 Generating alternative initial guess.
 ExpMin= 4.05D-02 ExpMax= 2.19D+04 ExpMxC= 3.30D+03 IAcc=2 IRadAn=         4 AccDes= 0.00D+00
 Harris functional with IExCor=  402 and IRadAn=       4 diagonalized for initial guess.
 HarFok:  IExCor=  402 AccDes= 0.00D+00 IRadAn=         4 IDoV= 1 UseB2=F ITyADJ=14
 ICtDFT=  3500011 ScaDFX=  1.000000  1.000000  1.000000  1.000000
 FoFCou: FMM=F IPFlag=           0 FMFlag=      100000 FMFlg1=           0
         NFxFlg=           0 DoJE=T BraDBF=F KetDBF=T FulRan=T
         wScrn=  0.000000 ICntrl=     500 IOpCl=  0 I1Cent=   200000004 NGrid=           0
         NMat0=    1 NMatS0=      1 NMatT0=    0 NMatD0=    1 NMtDS0=    0 NMtDT0=    0
 Petite list used in FoFCou.
 Harris En= -700.308955014132    
 Leave Link  401 at Tue Sep 17 19:26:50 2024, MaxMem=   268435456 cpu:         1.9
 (Enter /g100_work/pMI24_ChiCa/g09d1/g09d01/d01/build-node-6-2-59348/src/main/l502.exe)
 Closed shell SCF:
 Using DIIS extrapolation, IDIIS=  1040.
 Integral symmetry usage will be decided dynamically.
 Keep R1 ints in memory in symmetry-blocked form, NReq=27032647.
 IVT=       57763 IEndB=       57763 NGot=   268435456 MDV=   259375929
 LenX=   259375929 LenY=   259363607
 Requested convergence on RMS density matrix=1.00D-08 within 128 cycles.
 Requested convergence on MAX density matrix=1.00D-06.
 Requested convergence on             energy=1.00D-06.
 No special actions if energy rises.
 FoFCou: FMM=F IPFlag=           0 FMFlag=           0 FMFlg1=           0
         NFxFlg=           0 DoJE=F BraDBF=F KetDBF=F FulRan=T
         wScrn=  0.000000 ICntrl=     600 IOpCl=  0 I1Cent=           0 NGrid=           0
         NMat0=    1 NMatS0=   5995 NMatT0=    0 NMatD0=    1 NMtDS0=    0 NMtDT0=    0
 Petite list used in FoFCou.

 Cycle   1  Pass 1  IDiag  1:
 Inv3:  Mode=1 IEnd=     1183152.
 Iteration    1 A*A^-1 deviation from unit magnitude is 3.11D-15 for    456.
 Iteration    1 A*A^-1 deviation from orthogonality  is 2.22D-15 for    489    234.
 Iteration    1 A^-1*A deviation from unit magnitude is 3.66D-15 for     31.
 Iteration    1 A^-1*A deviation from orthogonality  is 8.33D-16 for    315    274.
 E= -700.232617416528    
 DIIS: error= 7.18D-03 at cycle   1 NSaved=   1.
 NSaved= 1 IEnMin= 1 EnMin= -700.232617416528     IErMin= 1 ErrMin= 7.18D-03
 ErrMax= 7.18D-03  0.00D+00 EMaxC= 1.00D-01 BMatC= 1.21D-02 BMatP= 1.21D-02
 IDIUse=3 WtCom= 9.28D-01 WtEn= 7.18D-02
 Coeff-Com:  0.100D+01
 Coeff-En:   0.100D+01
 Coeff:      0.100D+01
 Gap=     0.591 Goal=   None    Shift=    0.000
 GapD=    0.591 DampG=2.000 DampE=1.000 DampFc=2.0000 IDamp=-1.
 RMSDP=2.52D-03 MaxDP=3.22D-02              OVMax= 7.24D-02

 Cycle   2  Pass 1  IDiag  1:
 E= -700.253771921936     Delta-E=       -0.021154505409 Rises=F Damp=F
 DIIS: error= 2.79D-03 at cycle   2 NSaved=   2.
 NSaved= 2 IEnMin= 2 EnMin= -700.253771921936     IErMin= 2 ErrMin= 2.79D-03
 ErrMax= 2.79D-03  0.00D+00 EMaxC= 1.00D-01 BMatC= 1.61D-03 BMatP= 1.21D-02
 IDIUse=3 WtCom= 9.72D-01 WtEn= 2.79D-02
 Coeff-Com:  0.115D+00 0.885D+00
 Coeff-En:   0.000D+00 0.100D+01
 Coeff:      0.112D+00 0.888D+00
 Gap=     0.307 Goal=   None    Shift=    0.000
 RMSDP=7.04D-04 MaxDP=1.10D-02 DE=-2.12D-02 OVMax= 1.70D-02

 Cycle   3  Pass 1  IDiag  1:
 E= -700.252706589531     Delta-E=        0.001065332406 Rises=F Damp=F
 DIIS: error= 4.04D-03 at cycle   3 NSaved=   3.
 NSaved= 3 IEnMin= 2 EnMin= -700.253771921936     IErMin= 2 ErrMin= 2.79D-03
 ErrMax= 4.04D-03  0.00D+00 EMaxC= 1.00D-01 BMatC= 3.23D-03 BMatP= 1.61D-03
 IDIUse=3 WtCom= 1.36D-01 WtEn= 8.64D-01
 Coeff-Com: -0.392D-01 0.608D+00 0.431D+00
 Coeff-En:   0.000D+00 0.627D+00 0.373D+00
 Coeff:     -0.534D-02 0.625D+00 0.381D+00
 Gap=     0.310 Goal=   None    Shift=    0.000
 RMSDP=4.19D-04 MaxDP=6.60D-03 DE= 1.07D-03 OVMax= 1.09D-02

 Cycle   4  Pass 1  IDiag  1:
 E= -700.255077500566     Delta-E=       -0.002370911035 Rises=F Damp=F
 DIIS: error= 3.35D-04 at cycle   4 NSaved=   4.
 NSaved= 4 IEnMin= 4 EnMin= -700.255077500566     IErMin= 4 ErrMin= 3.35D-04
 ErrMax= 3.35D-04  0.00D+00 EMaxC= 1.00D-01 BMatC= 2.63D-05 BMatP= 1.61D-03
 IDIUse=3 WtCom= 9.97D-01 WtEn= 3.35D-03
 Coeff-Com: -0.220D-01 0.199D+00 0.121D+00 0.702D+00
 Coeff-En:   0.000D+00 0.000D+00 0.000D+00 0.100D+01
 Coeff:     -0.219D-01 0.198D+00 0.121D+00 0.703D+00
 Gap=     0.310 Goal=   None    Shift=    0.000
 RMSDP=8.09D-05 MaxDP=3.46D-03 DE=-2.37D-03 OVMax= 1.58D-03

 Cycle   5  Pass 1  IDiag  1:
 E= -700.255095722693     Delta-E=       -0.000018222127 Rises=F Damp=F
 DIIS: error= 2.03D-04 at cycle   5 NSaved=   5.
 NSaved= 5 IEnMin= 5 EnMin= -700.255095722693     IErMin= 5 ErrMin= 2.03D-04
 ErrMax= 2.03D-04  0.00D+00 EMaxC= 1.00D-01 BMatC= 8.29D-06 BMatP= 2.63D-05
 IDIUse=3 WtCom= 9.98D-01 WtEn= 2.03D-03
 Coeff-Com: -0.685D-02 0.520D-01 0.267D-01 0.390D+00 0.538D+00
 Coeff-En:   0.000D+00 0.000D+00 0.000D+00 0.162D+00 0.838D+00
 Coeff:     -0.683D-02 0.519D-01 0.266D-01 0.390D+00 0.538D+00
 Gap=     0.310 Goal=   None    Shift=    0.000
 RMSDP=2.93D-05 MaxDP=1.37D-03 DE=-1.82D-05 OVMax= 5.41D-04

 Cycle   6  Pass 1  IDiag  1:
 E= -700.255101997700     Delta-E=       -0.000006275007 Rises=F Damp=F
 DIIS: error= 5.86D-05 at cycle   6 NSaved=   6.
 NSaved= 6 IEnMin= 6 EnMin= -700.255101997700     IErMin= 6 ErrMin= 5.86D-05
 ErrMax= 5.86D-05  0.00D+00 EMaxC= 1.00D-01 BMatC= 4.48D-07 BMatP= 8.29D-06
 IDIUse=1 WtCom= 1.00D+00 WtEn= 0.00D+00
 Coeff-Com: -0.119D-02 0.454D-02 0.702D-03 0.123D+00 0.251D+00 0.621D+00
 Coeff:     -0.119D-02 0.454D-02 0.702D-03 0.123D+00 0.251D+00 0.621D+00
 Gap=     0.310 Goal=   None    Shift=    0.000
 RMSDP=5.81D-06 MaxDP=9.00D-05 DE=-6.28D-06 OVMax= 1.24D-04

 Cycle   7  Pass 1  IDiag  1:
 E= -700.255102311185     Delta-E=       -0.000000313485 Rises=F Damp=F
 DIIS: error= 1.01D-05 at cycle   7 NSaved=   7.
 NSaved= 7 IEnMin= 7 EnMin= -700.255102311185     IErMin= 7 ErrMin= 1.01D-05
 ErrMax= 1.01D-05  0.00D+00 EMaxC= 1.00D-01 BMatC= 1.89D-08 BMatP= 4.48D-07
 IDIUse=1 WtCom= 1.00D+00 WtEn= 0.00D+00
 Coeff-Com:  0.174D-03-0.409D-02-0.266D-02 0.657D-02 0.395D-01 0.219D+00
 Coeff-Com:  0.742D+00
 Coeff:      0.174D-03-0.409D-02-0.266D-02 0.657D-02 0.395D-01 0.219D+00
 Coeff:      0.742D+00
 Gap=     0.310 Goal=   None    Shift=    0.000
 RMSDP=1.61D-06 MaxDP=3.97D-05 DE=-3.13D-07 OVMax= 3.02D-05

 Cycle   8  Pass 1  IDiag  1:
 E= -700.255102326778     Delta-E=       -0.000000015593 Rises=F Damp=F
 DIIS: error= 7.50D-07 at cycle   8 NSaved=   8.
 NSaved= 8 IEnMin= 8 EnMin= -700.255102326778     IErMin= 8 ErrMin= 7.50D-07
 ErrMax= 7.50D-07  0.00D+00 EMaxC= 1.00D-01 BMatC= 1.07D-10 BMatP= 1.89D-08
 IDIUse=1 WtCom= 1.00D+00 WtEn= 0.00D+00
 Coeff-Com:  0.564D-04-0.890D-03-0.549D-03-0.562D-03 0.347D-02 0.338D-01
 Coeff-Com:  0.143D+00 0.822D+00
 Coeff:      0.564D-04-0.890D-03-0.549D-03-0.562D-03 0.347D-02 0.338D-01
 Coeff:      0.143D+00 0.822D+00
 Gap=     0.310 Goal=   None    Shift=    0.000
 RMSDP=1.45D-07 MaxDP=1.95D-06 DE=-1.56D-08 OVMax= 2.90D-06

 Cycle   9  Pass 1  IDiag  1:
 E= -700.255102326907     Delta-E=       -0.000000000128 Rises=F Damp=F
 DIIS: error= 1.38D-07 at cycle   9 NSaved=   9.
 NSaved= 9 IEnMin= 9 EnMin= -700.255102326907     IErMin= 9 ErrMin= 1.38D-07
 ErrMax= 1.38D-07  0.00D+00 EMaxC= 1.00D-01 BMatC= 3.06D-12 BMatP= 1.07D-10
 IDIUse=1 WtCom= 1.00D+00 WtEn= 0.00D+00
 Coeff-Com: -0.229D-06 0.611D-04 0.394D-04-0.327D-03-0.119D-02-0.457D-02
 Coeff-Com: -0.124D-01 0.109D+00 0.910D+00
 Coeff:     -0.229D-06 0.611D-04 0.394D-04-0.327D-03-0.119D-02-0.457D-02
 Coeff:     -0.124D-01 0.109D+00 0.910D+00
 Gap=     0.310 Goal=   None    Shift=    0.000
 RMSDP=3.91D-08 MaxDP=7.92D-07 DE=-1.28D-10 OVMax= 8.70D-07

 Cycle  10  Pass 1  IDiag  1:
 E= -700.255102326914     Delta-E=       -0.000000000007 Rises=F Damp=F
 DIIS: error= 1.11D-08 at cycle  10 NSaved=  10.
 NSaved=10 IEnMin=10 EnMin= -700.255102326914     IErMin=10 ErrMin= 1.11D-08
 ErrMax= 1.11D-08  0.00D+00 EMaxC= 1.00D-01 BMatC= 3.88D-14 BMatP= 3.06D-12
 IDIUse=1 WtCom= 1.00D+00 WtEn= 0.00D+00
 Coeff-Com: -0.704D-06 0.180D-04 0.115D-04-0.454D-04-0.205D-03-0.107D-02
 Coeff-Com: -0.357D-02 0.179D-03 0.112D+00 0.893D+00
 Coeff:     -0.704D-06 0.180D-04 0.115D-04-0.454D-04-0.205D-03-0.107D-02
 Coeff:     -0.357D-02 0.179D-03 0.112D+00 0.893D+00
 Gap=     0.310 Goal=   None    Shift=    0.000
 RMSDP=3.53D-09 MaxDP=6.32D-08 DE=-7.16D-12 OVMax= 5.75D-08

 Error on total polarization charges =  0.02899
 SCF Done:  E(RB3LYP) =  -700.255102327     A.U. after   10 cycles
            NFock= 10  Conv=0.35D-08     -V/T= 2.0065
 KE= 6.957130420556D+02 PE=-2.217124942358D+03 EE= 5.401382742119D+02
 SMD-CDS (non-electrostatic) energy       (kcal/mol) =       1.26
 (included in total energy above)
 Leave Link  502 at Tue Sep 17 19:26:51 2024, MaxMem=   268435456 cpu:        22.1
 (Enter /g100_work/pMI24_ChiCa/g09d1/g09d01/d01/build-node-6-2-59348/src/main/l701.exe)
 Compute integral first derivatives.
 ... and contract with generalized density number  0.
 D1PCM: PCM CHGder 1st derivatives, ID1Alg=3 FixD1E=F DoIter=F DoCFld=F I1PDM=0.
 GePol: Maximum number of non-zero 1st derivatives   =     404
 Leave Link  701 at Tue Sep 17 19:26:51 2024, MaxMem=   268435456 cpu:         4.4
 (Enter /g100_work/pMI24_ChiCa/g09d1/g09d01/d01/build-node-6-2-59348/src/main/l702.exe)
 L702 exits ... SP integral derivatives will be done elsewhere.
 Leave Link  702 at Tue Sep 17 19:26:51 2024, MaxMem=   268435456 cpu:         0.1
 (Enter /g100_work/pMI24_ChiCa/g09d1/g09d01/d01/build-node-6-2-59348/src/main/l703.exe)
 Compute integral first derivatives, UseDBF=F ICtDFT=           0.
 Integral derivatives from FoFJK, PRISM(SPDF).
 Calling FoFJK, ICntrl=      2127 FMM=F ISym2X=1 I1Cent= 0 IOpClX= 0 NMat=1 NMatS=1 NMatT=0.
 FoFJK:  IHMeth= 1 ICntrl=    2127 DoSepK=F KAlg= 0 I1Cent=   0 FoldK=F
 IRaf=         0 NMat=   1 IRICut=       1 DoRegI=T DoRafI=F ISym2E= 1.
 FoFCou: FMM=F IPFlag=           0 FMFlag=      100000 FMFlg1=         800
         NFxFlg=           0 DoJE=F BraDBF=F KetDBF=F FulRan=T
         wScrn=  0.000000 ICntrl=    2127 IOpCl=  0 I1Cent=           0 NGrid=           0
         NMat0=    1 NMatS0=      1 NMatT0=    0 NMatD0=    1 NMtDS0=    0 NMtDT0=    0
 Petite list used in FoFCou.
 Leave Link  703 at Tue Sep 17 19:26:51 2024, MaxMem=   268435456 cpu:         5.1
 (Enter /g100_work/pMI24_ChiCa/g09d1/g09d01/d01/build-node-6-2-59348/src/main/l716.exe)
 Dipole        = 2.22044605D-16-8.88178420D-16-2.38517721D+00
 ***** Axes restored to original set *****
 -------------------------------------------------------------------
 Center     Atomic                   Forces (Hartrees/Bohr)
 Number     Number              X              Y              Z
 -------------------------------------------------------------------
      1       16          -0.012352219    0.000000000   -0.008734338
      2        8          -0.000936481    0.002882927   -0.010443053
      3        8          -0.010157965   -0.002882927    0.002598095
      4        8           0.012407214    0.021820276    0.006211847
      5        8           0.009992323   -0.021820276    0.009627018
      6        1          -0.000498294   -0.001750569    0.001815342
      7        1           0.001545423    0.001750569   -0.001074910
 -------------------------------------------------------------------
 Cartesian Forces:  Max     0.021820276 RMS     0.009298936
 Leave Link  716 at Tue Sep 17 19:26:51 2024, MaxMem=   268435456 cpu:         0.1
 (Enter /g100_work/pMI24_ChiCa/g09d1/g09d01/d01/build-node-6-2-59348/src/main/l103.exe)

 GradGradGradGradGradGradGradGradGradGradGradGradGradGradGradGradGradGrad
 Berny optimization.
 Using GEDIIS/GDIIS optimizer.
 FormGI is forming the generalized inverse of G from B-inverse, IUseBI=4.
 Internal  Forces:  Max     0.025708202 RMS     0.008835295
 Search for a local minimum.
 Step number   2 out of a maximum of   30
 All quantities printed in internal units (Hartrees-Bohrs-Radians)
 RMS Force = .88353D-02 SwitMx=.10000D-02 MixMth= 1
 Mixed Optimization -- RFO/linear search
 Update second derivatives using D2CorX and points    1    2
 DE= -1.95D-02 DEPred=-1.85D-02 R= 1.06D+00
 TightC=F SS=  1.41D+00  RLast= 3.63D-01 DXNew= 5.0454D-01 1.0894D+00
 Trust test= 1.06D+00 RLast= 3.63D-01 DXMaxT set to 5.05D-01
 The second derivative matrix:
                          R1        R2        R3        R4        R5
           R1           0.40148
           R2          -0.01021   0.40148
           R3          -0.02661  -0.02661   0.68122
           R4          -0.02661  -0.02661  -0.05336   0.68122
           R5           0.00615   0.00615   0.02518   0.02518   0.57836
           R6           0.00615   0.00615   0.02518   0.02518   0.00154
           A1          -0.00949  -0.00949  -0.02741  -0.02741   0.00417
           A2          -0.00103  -0.00103  -0.00018  -0.00018   0.00205
           A3          -0.00820  -0.00820  -0.01681  -0.01681   0.00754
           A4          -0.00820  -0.00820  -0.01681  -0.01681   0.00754
           A5          -0.00103  -0.00103  -0.00018  -0.00018   0.00205
           A6           0.02251   0.02251   0.05239   0.05239  -0.01714
           A7           0.00179   0.00179   0.00278   0.00278  -0.00215
           A8           0.00179   0.00179   0.00278   0.00278  -0.00215
           D1          -0.00174  -0.00174  -0.00165  -0.00165   0.00271
           D2           0.01282   0.01282   0.01154   0.01154  -0.02025
           D3          -0.01250  -0.01250  -0.01155  -0.01155   0.01959
           D4          -0.00174  -0.00174  -0.00165  -0.00165   0.00271
           D5          -0.01250  -0.01250  -0.01155  -0.01155   0.01959
           D6           0.01282   0.01282   0.01154   0.01154  -0.02025
                          R6        A1        A2        A3        A4
           R6           0.57836
           A1           0.00417   0.24164
           A2           0.00205  -0.00138   0.25029
           A3           0.00754  -0.00838  -0.00011   0.24472
           A4           0.00754  -0.00838  -0.00011  -0.00528   0.24472
           A5           0.00205  -0.00138   0.00029  -0.00011  -0.00011
           A6          -0.01714   0.02196   0.00129   0.01629   0.01629
           A7          -0.00215   0.00198  -0.00011   0.00090   0.00090
           A8          -0.00215   0.00198  -0.00011   0.00090   0.00090
           D1           0.00271  -0.00211   0.00028  -0.00057  -0.00057
           D2          -0.02025   0.01559  -0.00212   0.00406   0.00406
           D3           0.01959  -0.01516   0.00203  -0.00405  -0.00405
           D4           0.00271  -0.00211   0.00028  -0.00057  -0.00057
           D5           0.01959  -0.01516   0.00203  -0.00405  -0.00405
           D6          -0.02025   0.01559  -0.00212   0.00406   0.00406
                          A5        A6        A7        A8        D1
           A5           0.25029
           A6           0.00129   0.20284
           A7          -0.00011  -0.00320   0.15991
           A8          -0.00011  -0.00320  -0.00009   0.15991
           D1           0.00028   0.00271  -0.00004  -0.00004   0.01848
           D2          -0.00212  -0.01969   0.00033   0.00033  -0.00177
           D3           0.00203   0.01932  -0.00029  -0.00029   0.00168
           D4           0.00028   0.00271  -0.00004  -0.00004   0.00023
           D5           0.00203   0.01932  -0.00029  -0.00029   0.00168
           D6          -0.00212  -0.01969   0.00033   0.00033  -0.00177
                          D2        D3        D4        D5        D6
           D2           0.03208
           D3          -0.01310   0.03065
           D4          -0.00177   0.00168   0.01848
           D5          -0.01310   0.01240   0.00168   0.03065
           D6           0.01383  -0.01310  -0.00177  -0.01310   0.03208
 ITU=  1  0
 Use linear search instead of GDIIS.
     Eigenvalues ---    0.01821   0.01825   0.14963   0.15807   0.16000
     Eigenvalues ---    0.16909   0.17843   0.21044   0.25395   0.37934
     Eigenvalues ---    0.41169   0.55727   0.57681   0.67009   0.73458
 RFO step:  Lambda=-2.71307654D-03 EMin= 1.82137119D-02
 Quartic linear search produced a step of  0.15870.
 Iteration  1 RMS(Cart)=  0.03523078 RMS(Int)=  0.00076907
 Iteration  2 RMS(Cart)=  0.00046856 RMS(Int)=  0.00044941
 Iteration  3 RMS(Cart)=  0.00000025 RMS(Int)=  0.00044941
 ITry= 1 IFail=0 DXMaxC= 7.64D-02 DCOld= 1.00D+10 DXMaxT= 5.05D-01 DXLimC= 3.00D+00 Rises=F
 ClnCor:  largest displacement from symmetrization is 1.06D-09 for atom     5.
 Variable       Old X    -DE/DX   Delta X   Delta X   Delta X     New X
                                 (Linear)    (Quad)   (Total)
    R1        3.07004  -0.00865  -0.01062  -0.01826  -0.02888   3.04116
    R2        3.07004  -0.00865  -0.01062  -0.01826  -0.02888   3.04116
    R3        2.79238  -0.02571  -0.00970  -0.03565  -0.04535   2.74703
    R4        2.79238  -0.02571  -0.00970  -0.03565  -0.04535   2.74703
    R5        1.85073   0.00174   0.00881  -0.00110   0.00770   1.85844
    R6        1.85073   0.00174   0.00881  -0.00110   0.00770   1.85844
    A1        1.79013   0.00390  -0.01912   0.03247   0.01251   1.80264
    A2        1.92558   0.00198   0.00091   0.01145   0.01151   1.93708
    A3        1.84820  -0.00434  -0.00918  -0.01472  -0.02454   1.82366
    A4        1.84820  -0.00434  -0.00918  -0.01472  -0.02454   1.82366
    A5        1.92558   0.00198   0.00091   0.01145   0.01151   1.93708
    A6        2.10220   0.00149   0.03186  -0.01686   0.01492   2.11712
    A7        1.92100   0.00228   0.00165   0.01500   0.01665   1.93765
    A8        1.92100   0.00228   0.00165   0.01500   0.01665   1.93765
    D1       -1.02934   0.00065   0.00149  -0.03624  -0.03445  -1.06378
    D2        0.93319  -0.00158  -0.01944  -0.03246  -0.05160   0.88159
    D3       -3.04854  -0.00152   0.01477  -0.05701  -0.04285  -3.09139
    D4       -1.02934   0.00065   0.00149  -0.03624  -0.03445  -1.06378
    D5       -3.04854  -0.00152   0.01477  -0.05701  -0.04285  -3.09139
    D6        0.93319  -0.00158  -0.01944  -0.03246  -0.05160   0.88159
         Item               Value     Threshold  Converged?
 Maximum Force            0.025708     0.000450     NO 
 RMS     Force            0.008835     0.000300     NO 
 Maximum Displacement     0.076428     0.001800     NO 
 RMS     Displacement     0.035300     0.001200     NO 
 Predicted change in Energy=-1.825317D-03
 Lowest energy point so far.  Saving SCF results.
 GradGradGradGradGradGradGradGradGradGradGradGradGradGradGradGradGradGrad

 Leave Link  103 at Tue Sep 17 19:26:52 2024, MaxMem=   268435456 cpu:         1.2
 (Enter /g100_work/pMI24_ChiCa/g09d1/g09d01/d01/build-node-6-2-59348/src/main/l202.exe)
                          Input orientation:                          
 ---------------------------------------------------------------------
 Center     Atomic      Atomic             Coordinates (Angstroms)
 Number     Number       Type             X           Y           Z
 ---------------------------------------------------------------------
      1         16           0       -0.060695    0.000000   -0.042918
      2          8           0        0.026728    0.049710    1.563249
      3          8           0        1.482755   -0.049710   -0.495884
      4          8           0       -0.613425   -1.266090   -0.495299
      5          8           0       -0.671447    1.266090   -0.413243
      6          1           0        0.472618   -0.752186    1.917231
      7          1           0        1.965122    0.752186   -0.193489
 ---------------------------------------------------------------------
                    Distance matrix (angstroms):
                    1          2          3          4          5
     1  S    0.000000
     2  O    1.609313   0.000000
     3  O    1.609313   2.523872   0.000000
     4  O    1.453666   2.525618   2.423541   0.000000
     5  O    1.453666   2.423541   2.525618   2.534174   0.000000
     6  H    2.166192   0.983442   2.708684   2.695159   3.288378
     7  H    2.166192   2.708684   0.983442   3.288378   2.695159
                    6          7
     6  H    0.000000
     7  H    2.990959   0.000000
 Stoichiometry    H2O4S
 Framework group  C2[C2(S),X(H2O4)]
 Deg. of freedom     8
 Full point group                 C2      NOp   2
 RotChk:  IX=0 Diff= 9.17D-03
 Largest Abelian subgroup         C2      NOp   2
 Largest concise Abelian subgroup C2      NOp   2
                         Standard orientation:                         
 ---------------------------------------------------------------------
 Center     Atomic      Atomic             Coordinates (Angstroms)
 Number     Number       Type             X           Y           Z
 ---------------------------------------------------------------------
      1         16           0       -0.000000    0.000000    0.154275
      2          8           0        0.000000    1.261936   -0.844427
      3          8           0       -0.000000   -1.261936   -0.844427
      4          8           0        1.263128   -0.100083    0.866760
      5          8           0       -1.263128    0.100083    0.866760
      6          1           0        0.802518    1.261913   -1.412865
      7          1           0       -0.802518   -1.261913   -1.412865
 ---------------------------------------------------------------------
 Rotational constants (GHZ):      4.9216889      4.7315206      4.7133226
 Leave Link  202 at Tue Sep 17 19:26:52 2024, MaxMem=   268435456 cpu:         0.1
 (Enter /g100_work/pMI24_ChiCa/g09d1/g09d01/d01/build-node-6-2-59348/src/main/l301.exe)
 Standard basis: 6-31+G(d,p) (6D, 7F)
 Ernie: Thresh=  0.10000D-02 Tol=  0.10000D-05 Strict=F.
 There are    56 symmetry adapted cartesian basis functions of A   symmetry.
 There are    53 symmetry adapted cartesian basis functions of B   symmetry.
 There are    56 symmetry adapted basis functions of A   symmetry.
 There are    53 symmetry adapted basis functions of B   symmetry.
   109 basis functions,   198 primitive gaussians,   109 cartesian basis functions
    25 alpha electrons       25 beta electrons
       nuclear repulsion energy       284.3663631415 Hartrees.
 IExCor=  402 DFT=T Ex+Corr=B3LYP ExCW=0 ScaHFX=  0.200000
 ScaDFX=  0.800000  0.720000  1.000000  0.810000 ScalE2=  1.000000  1.000000
 IRadAn=      0 IRanWt=     -1 IRanGd=            0 ICorTp=0 IEmpDi=  4
 NAtoms=    7 NActive=    7 NUniq=    4 SFac= 3.06D+00 NAtFMM=   60 NAOKFM=F Big=F
 Integral buffers will be    131072 words long.
 Raffenetti 2 integral format.
 Two-electron integral symmetry is turned on.
 ------------------------------------------------------------------------------
 Polarizable Continuum Model (PCM)
 =================================
 Model                : PCM (using non-symmetric T matrix).
 Atomic radii         : SMD-Coulomb.
 Polarization charges : Total charges.
 Charge compensation  : None.
 Solution method      : On-the-fly selection.
 Cavity type          : VdW (van der Waals Surface) (Alpha=1.000).
 Cavity algorithm     : GePol (No added spheres)
                        Default sphere list used, NSphG=    7.
                        Lebedev-Laikov grids with approx.  5.0 points / Ang**2.
                        Smoothing algorithm: Karplus/York (Gamma=1.0000).
                        Polarization charges: spherical gaussians, with
                                              point-specific exponents (IZeta= 3).
                        Self-potential: point-specific (ISelfS= 7).
                        Self-field    : sphere-specific E.n sum rule (ISelfD= 2).
 1st derivatives      : Analytical E(r).r(x)/FMM algorithm (CHGder, D1EAlg=3).
                        Cavity 1st derivative terms included.
 Solvent              : Water, Eps=  78.355300 Eps(inf)=   1.777849
 ------------------------------------------------------------------------------
 Spheres list:
 ISph  on   Nord     Re0    Alpha      Xe            Ye            Ze
    1   S      1    2.4900  1.000     -0.000000      0.000000      0.154275
    2   O      2    1.5200  1.000      0.000000      1.261936     -0.844427
    3   O      3    1.5200  1.000     -0.000000     -1.261936     -0.844427
    4   O      4    1.5200  1.000      1.263128     -0.100083      0.866760
    5   O      5    1.5200  1.000     -1.263128      0.100083      0.866760
    6   H      6    1.2000  1.000      0.802518      1.261913     -1.412865
    7   H      7    1.2000  1.000     -0.802518     -1.261913     -1.412865
 ------------------------------------------------------------------------------
 GePol: Number of generator spheres                  =       7
 GePol: Total number of spheres                      =       7
 GePol: Number of exposed spheres                    =       7 (100.00%)
 GePol: Number of points                             =     624
 GePol: Average weight of points                     =       0.15
 GePol: Minimum weight of points                     =   0.29D-06
 GePol: Maximum weight of points                     =    0.21991
 GePol: Number of points with low weight             =      20
 GePol: Fraction of low-weight points (<1% of avg)   =       3.21%
 GePol: Cavity surface area                          =     92.677 Ang**2
 GePol: Cavity volume                                =     77.314 Ang**3
 ------------------------------------------------------------------------------
 Atomic radii for non-electrostatic terms: SMD-CDS.
 ------------------------------------------------------------------------------
 PCM non-electrostatic energy =         0.0020378068 Hartrees.
 Nuclear repulsion after PCM non-electrostatic terms =      284.3684009483 Hartrees.
 Leave Link  301 at Tue Sep 17 19:26:52 2024, MaxMem=   268435456 cpu:         0.2
 (Enter /g100_work/pMI24_ChiCa/g09d1/g09d01/d01/build-node-6-2-59348/src/main/l302.exe)
 NPDir=0 NMtPBC=     1 NCelOv=     1 NCel=       1 NClECP=     1 NCelD=      1
         NCelK=      1 NCelE2=     1 NClLst=     1 CellRange=     0.0.
 One-electron integrals computed using PRISM.
 One-electron integral symmetry used in STVInt
 NBasis=   109 RedAO= T EigKep=  1.94D-03  NBF=    56    53
 NBsUse=   109 1.00D-06 EigRej= -1.00D+00 NBFU=    56    53
 Precomputing XC quadrature grid using
 IXCGrd= 4 IRadAn=           0 IRanWt=          -1 IRanGd=           0 AccXCQ= 0.00D+00.
 Generated NRdTot=       0 NPtTot=           0 NUsed=           0 NTot=          32
 NSgBfM=   109   109   109   109   109 MxSgAt=     7 MxSgA2=     7.
 Leave Link  302 at Tue Sep 17 19:26:52 2024, MaxMem=   268435456 cpu:         1.4
 (Enter /g100_work/pMI24_ChiCa/g09d1/g09d01/d01/build-node-6-2-59348/src/main/l303.exe)
 DipDrv:  MaxL=1.
 Leave Link  303 at Tue Sep 17 19:26:52 2024, MaxMem=   268435456 cpu:         0.2
 (Enter /g100_work/pMI24_ChiCa/g09d1/g09d01/d01/build-node-6-2-59348/src/main/l401.exe)
 Initial guess from the checkpoint file:  "/g100_scratch/userexternal/ecabiati/g16_14420035/Gau-26620.chk"
 B after Tr=     0.000000   -0.000000    0.000000
         Rot=    0.999984   -0.000000    0.000000    0.005658 Ang=   0.65 deg.
 Guess basis will be translated and rotated to current coordinates.
 JPrj=2 DoOrth=T DoCkMO=T.
 Initial guess orbital symmetries:
       Occupied  (A) (B) (A) (B) (A) (A) (B) (A) (B) (A) (B) (A)
                 (B) (A) (B) (A) (B) (A) (B) (A) (B) (A) (B) (A)
                 (B)
       Virtual   (A) (A) (A) (A) (A) (A) (A) (A) (A) (A) (A) (A)
                 (A) (A) (A) (A) (A) (A) (A) (A) (A) (A) (A) (A)
                 (A) (A) (A) (A) (A) (A) (A) (A) (A) (A) (A) (A)
                 (A) (A) (A) (A) (A) (A) (A) (B) (B) (B) (B) (B)
                 (B) (B) (B) (B) (B) (B) (B) (B) (B) (B) (B) (B)
                 (B) (B) (B) (B) (B) (B) (B) (B) (B) (B) (B) (B)
                 (B) (B) (B) (B) (B) (B) (B) (B) (B) (B) (B) (B)
 The electronic state of the initial guess is 1-A.
[...]
     21  0.813316D-02  0.119505D-01  0.141542D-02 -0.234051D-03 -0.171112D-02
                6             7             8             9            10 
      6  0.346305D+00
      7  0.139414D-01  0.359483D+00
      8  0.263999D-02  0.174817D+00  0.454388D+00
      9 -0.208937D-01 -0.262932D-01  0.974620D-01  0.921503D-01
     10 -0.454771D-02 -0.259737D-01 -0.450861D-01 -0.947282D-02  0.146601D+00
     11 -0.695980D-02 -0.103182D-01 -0.103209D-01 -0.470079D-02  0.184906D+00
     12 -0.224622D-01  0.557413D-02  0.345898D-02  0.766474D-02  0.643899D-01
     13 -0.456424D-02 -0.253678D-01  0.307031D-01 -0.367042D-02  0.131053D-01
     14  0.816121D-02  0.862016D-02  0.219037D-02  0.350207D-02  0.137122D-01
     15 -0.210109D-01  0.723795D-02 -0.270119D-02  0.108727D-01 -0.340379D-03
     16 -0.590254D-01 -0.201732D-02  0.908745D-03  0.102506D-02  0.303035D-03
     17  0.151041D+00  0.241989D-02  0.268503D-03 -0.323053D-02 -0.795595D-03
     18 -0.845235D-01 -0.139661D-02 -0.256305D-02  0.212052D-02  0.294226D-02
     19 -0.265572D-02 -0.114326D+00 -0.150902D+00 -0.252674D-01 -0.345657D-02
     20 -0.335834D-02 -0.188564D+00 -0.371330D+00 -0.802139D-01  0.544167D-02
     21 -0.144079D-02 -0.389528D-01 -0.902854D-01 -0.277496D-01  0.292892D-02
               11            12            13            14            15 
     11  0.473567D+00
     12  0.146709D+00  0.109342D+00
     13 -0.129529D-01 -0.165551D-02  0.153954D+00
     14 -0.293529D-01  0.889059D-02 -0.199954D+00  0.473567D+00
     15 -0.996447D-02  0.138110D-01  0.617903D-01 -0.125429D+00  0.101990D+00
     16 -0.226561D-04  0.254026D-02  0.383783D-02 -0.311090D-03  0.349965D-03
     17 -0.296846D-02 -0.333553D-02 -0.161275D-02  0.566927D-02 -0.520157D-02
     18 -0.163780D-03  0.539430D-02 -0.942499D-03  0.142122D-03 -0.415888D-02
     19 -0.302973D-04  0.163646D-02  0.655160D-02  0.161965D-03  0.733056D-03
     20  0.566927D-02 -0.213346D-03  0.340996D-02 -0.296846D-02 -0.361749D-03
     21  0.340672D-03  0.313552D-02  0.331060D-03 -0.332330D-04 -0.854257D-03
               16            17            18            19            20 
     16  0.558042D-01
     17 -0.135912D+00  0.364234D+00
     18  0.584616D-01 -0.145423D+00  0.111945D+00
     19  0.305178D-03 -0.441612D-03  0.338701D-03  0.142452D+00
     20  0.777035D-04 -0.604041D-03  0.440928D-03  0.182411D+00  0.364234D+00
     21 -0.332224D-04  0.737164D-04  0.197175D-03  0.278269D-01  0.796648D-01
               21 
     21  0.252966D-01
 FormGI is forming the generalized inverse of G from B-inverse, IUseBI=4.
 Force constants in internal coordinates: 
                1             2             3             4             5 
      1  0.289373D+00
      2  0.148000D-01  0.289373D+00
      3  0.127108D-01  0.159902D-01  0.608216D+00
      4  0.159902D-01  0.127108D-01  0.114374D-01  0.608216D+00
      5  0.509000D-02 -0.373311D-02 -0.464922D-02 -0.609481D-02  0.482144D+00
      6 -0.373311D-02  0.509000D-02 -0.609481D-02 -0.464922D-02  0.880340D-03
      7  0.194456D-01  0.194456D-01 -0.158245D-01 -0.158245D-01 -0.422563D-02
      8  0.109926D-01 -0.174806D-01  0.114274D-01 -0.137883D-01 -0.555192D-02
      9  0.230294D-01 -0.186029D-01 -0.114607D-01  0.177723D-01  0.397595D-03
     10 -0.186029D-01  0.230294D-01  0.177723D-01 -0.114607D-01  0.299790D-02
     11 -0.174806D-01  0.109926D-01 -0.137883D-01  0.114274D-01  0.272577D-02
     12 -0.121642D-01 -0.121642D-01  0.765000D-02  0.765000D-02  0.241608D-02
     13  0.502828D-01 -0.464186D-03 -0.188723D-02  0.794830D-02  0.141204D-01
     14 -0.464186D-03  0.502828D-01  0.794830D-02 -0.188723D-02  0.400597D-03
     15  0.138630D-02 -0.588999D-02 -0.141540D-01  0.135492D-01  0.728742D-03
     16 -0.570602D-02  0.229885D-01  0.293031D-02 -0.130495D-01 -0.212989D-03
     17  0.368173D-02 -0.186775D-01  0.121152D-01  0.362629D-03 -0.715198D-03
     18 -0.588999D-02  0.138630D-02  0.135492D-01 -0.141540D-01 -0.216084D-02
     19 -0.186775D-01  0.368173D-02  0.362629D-03  0.121152D-01  0.453207D-02
     20  0.229885D-01 -0.570602D-02 -0.130495D-01  0.293031D-02 -0.270039D-02
                6             7             8             9            10 
      6  0.482144D+00
      7 -0.422563D-02  0.207021D+00
      8  0.272577D-02 -0.320645D-01  0.125422D+00
      9  0.299790D-02 -0.511667D-01 -0.125544D-01  0.138695D+00
     10  0.397594D-03 -0.511667D-01 -0.480108D-01 -0.986549D-02  0.138695D+00
     11 -0.555192D-02 -0.320645D-01 -0.148036D-01 -0.480108D-01 -0.125544D-01
     12  0.241608D-02  0.270893D-04 -0.189153D-01 -0.264302D-01 -0.264302D-01
     13  0.400597D-03 -0.693954D-02 -0.123484D-01  0.189361D-01 -0.315854D-02
     14  0.141204D-01 -0.693954D-02  0.366672D-03 -0.315854D-02  0.189361D-01
     15 -0.216084D-02 -0.628688D-04 -0.573796D-02  0.836036D-02 -0.506660D-01
     16 -0.270039D-02  0.315170D-01 -0.254566D-01 -0.335167D-01  0.627740D-01
     17  0.453207D-02 -0.291452D-01  0.287376D-01  0.277035D-01 -0.119192D-01
     18  0.728742D-03 -0.628685D-04  0.454914D-01 -0.506660D-01  0.836036D-02
     19 -0.715198D-03 -0.291452D-01 -0.612653D-01 -0.119192D-01  0.277035D-01
     20 -0.212989D-03  0.315170D-01  0.913984D-02  0.627740D-01 -0.335167D-01
               11            12            13            14            15 
     11  0.125422D+00
     12 -0.189153D-01  0.801212D-01
     13  0.366672D-03  0.120080D-02  0.157531D+00
     14 -0.123484D-01  0.120080D-02  0.331159D-03  0.157531D+00
     15  0.454914D-01  0.344298D-02  0.583187D-02 -0.116808D-01  0.387552D-01
     16  0.913984D-02 -0.344558D-01 -0.626696D-02  0.665126D-02 -0.215132D-01
     17 -0.612653D-01  0.348064D-01  0.791549D-03  0.607797D-02 -0.148793D-01
     18 -0.573796D-02  0.344298D-02 -0.116808D-01  0.583187D-02 -0.184933D-01
     19  0.287376D-01  0.348064D-01  0.607797D-02  0.791549D-03  0.788824D-02
     20 -0.254566D-01 -0.344558D-01  0.665126D-02 -0.626696D-02  0.956981D-02
               16            17            18            19            20 
     16  0.555455D-01
     17 -0.313051D-01  0.539399D-01
     18  0.956981D-02  0.788824D-02  0.387552D-01
     19  0.594445D-04 -0.728307D-02 -0.148793D-01  0.539399D-01
     20 -0.930748D-02  0.594447D-04 -0.215132D-01 -0.313051D-01  0.555455D-01
 Leave Link  716 at Tue Sep 17 19:27:13 2024, MaxMem=   268435456 cpu:         0.2
 (Enter /g100_work/pMI24_ChiCa/g09d1/g09d01/d01/build-node-6-2-59348/src/main/l103.exe)

 GradGradGradGradGradGradGradGradGradGradGradGradGradGradGradGradGradGrad
 Berny optimization.
 Red2BG is reusing G-inverse.
 Internal  Forces:  Max     0.000027915 RMS     0.000013670
 Search for a local minimum.
 Step number   1 out of a maximum of    2
 All quantities printed in internal units (Hartrees-Bohrs-Radians)
 Second derivative matrix not updated -- analytic derivatives used.
 The second derivative matrix:
                          R1        R2        R3        R4        R5
           R1           0.28937
           R2           0.01480   0.28937
           R3           0.01271   0.01599   0.60822
           R4           0.01599   0.01271   0.01144   0.60822
           R5           0.00509  -0.00373  -0.00465  -0.00609   0.48214
           R6          -0.00373   0.00509  -0.00609  -0.00465   0.00088
           A1           0.01945   0.01945  -0.01582  -0.01582  -0.00423
           A2           0.01099  -0.01748   0.01143  -0.01379  -0.00555
           A3           0.02303  -0.01860  -0.01146   0.01777   0.00040
           A4          -0.01860   0.02303   0.01777  -0.01146   0.00300
           A5          -0.01748   0.01099  -0.01379   0.01143   0.00273
           A6          -0.01216  -0.01216   0.00765   0.00765   0.00242
           A7           0.05028  -0.00046  -0.00189   0.00795   0.01412
           A8          -0.00046   0.05028   0.00795  -0.00189   0.00040
           D1           0.00139  -0.00589  -0.01415   0.01355   0.00073
           D2          -0.00571   0.02299   0.00293  -0.01305  -0.00021
           D3           0.00368  -0.01868   0.01212   0.00036  -0.00072
           D4          -0.00589   0.00139   0.01355  -0.01415  -0.00216
           D5          -0.01868   0.00368   0.00036   0.01212   0.00453
           D6           0.02299  -0.00571  -0.01305   0.00293  -0.00270
                          R6        A1        A2        A3        A4
           R6           0.48214
           A1          -0.00423   0.20702
           A2           0.00273  -0.03206   0.12542
           A3           0.00300  -0.05117  -0.01255   0.13870
           A4           0.00040  -0.05117  -0.04801  -0.00987   0.13870
           A5          -0.00555  -0.03206  -0.01480  -0.04801  -0.01255
           A6           0.00242   0.00003  -0.01892  -0.02643  -0.02643
           A7           0.00040  -0.00694  -0.01235   0.01894  -0.00316
           A8           0.01412  -0.00694   0.00037  -0.00316   0.01894
           D1          -0.00216  -0.00006  -0.00574   0.00836  -0.05067
           D2          -0.00270   0.03152  -0.02546  -0.03352   0.06277
           D3           0.00453  -0.02915   0.02874   0.02770  -0.01192
           D4           0.00073  -0.00006   0.04549  -0.05067   0.00836
           D5          -0.00072  -0.02915  -0.06127  -0.01192   0.02770
           D6          -0.00021   0.03152   0.00914   0.06277  -0.03352
                          A5        A6        A7        A8        D1
           A5           0.12542
           A6          -0.01892   0.08012
           A7           0.00037   0.00120   0.15753
           A8          -0.01235   0.00120   0.00033   0.15753
           D1           0.04549   0.00344   0.00583  -0.01168   0.03876
           D2           0.00914  -0.03446  -0.00627   0.00665  -0.02151
           D3          -0.06127   0.03481   0.00079   0.00608  -0.01488
           D4          -0.00574   0.00344  -0.01168   0.00583  -0.01849
           D5           0.02874   0.03481   0.00608   0.00079   0.00789
           D6          -0.02546  -0.03446   0.00665  -0.00627   0.00957
                          D2        D3        D4        D5        D6
           D2           0.05555
           D3          -0.03131   0.05394
           D4           0.00957   0.00789   0.03876
           D5           0.00006  -0.00728  -0.01488   0.05394
           D6          -0.00931   0.00006  -0.02151  -0.03131   0.05555
 ITU=  0
     Eigenvalues ---    0.00396   0.00425   0.12555   0.13176   0.16514
     Eigenvalues ---    0.19192   0.20144   0.22557   0.26115   0.33230
     Eigenvalues ---    0.34794   0.48279   0.48362   0.60392   0.62510
 Angle between quadratic step and forces=  56.08 degrees.
 Linear search not attempted -- first point.
 Iteration  1 RMS(Cart)=  0.00005412 RMS(Int)=  0.00000000
 Iteration  2 RMS(Cart)=  0.00000000 RMS(Int)=  0.00000000
 ITry= 1 IFail=0 DXMaxC= 1.04D-04 DCOld= 1.00D+10 DXMaxT= 3.00D-01 DXLimC= 3.00D+00 Rises=F
 ClnCor:  largest displacement from symmetrization is 3.30D-12 for atom     7.
 Variable       Old X    -DE/DX   Delta X   Delta X   Delta X     New X
                                 (Linear)    (Quad)   (Total)
    R1        3.03702   0.00003   0.00000   0.00011   0.00011   3.03713
    R2        3.03702   0.00003   0.00000   0.00011   0.00011   3.03713
    R3        2.74919  -0.00003   0.00000  -0.00005  -0.00005   2.74914
    R4        2.74919  -0.00003   0.00000  -0.00005  -0.00005   2.74914
    R5        1.85236  -0.00001   0.00000  -0.00003  -0.00003   1.85234
    R6        1.85236  -0.00001   0.00000  -0.00003  -0.00003   1.85234
    A1        1.80667  -0.00002   0.00000  -0.00009  -0.00009   1.80658
    A2        1.92857   0.00001   0.00000   0.00002   0.00002   1.92859
    A3        1.82873   0.00000   0.00000   0.00002   0.00002   1.82875
    A4        1.82873   0.00000   0.00000   0.00002   0.00002   1.82875
    A5        1.92857   0.00001   0.00000   0.00002   0.00002   1.92859
    A6        2.11991  -0.00001   0.00000  -0.00001  -0.00001   2.11990
    A7        1.94466  -0.00000   0.00000  -0.00005  -0.00005   1.94462
    A8        1.94466  -0.00000   0.00000  -0.00005  -0.00005   1.94462
    D1       -1.20866  -0.00000   0.00000  -0.00011  -0.00011  -1.20878
    D2        0.74107  -0.00000   0.00000  -0.00013  -0.00013   0.74094
    D3        3.05270  -0.00000   0.00000  -0.00011  -0.00011   3.05259
    D4       -1.20866  -0.00000   0.00000  -0.00011  -0.00011  -1.20878
    D5        3.05270  -0.00000   0.00000  -0.00011  -0.00011   3.05259
    D6        0.74107  -0.00000   0.00000  -0.00013  -0.00013   0.74094
         Item               Value     Threshold  Converged?
 Maximum Force            0.000028     0.000450     YES
 RMS     Force            0.000014     0.000300     YES
 Maximum Displacement     0.000104     0.001800     YES
 RMS     Displacement     0.000054     0.001200     YES
 Predicted change in Energy=-6.120436D-09
 Optimization completed.
    -- Stationary point found.
                           ----------------------------
                           !   Optimized Parameters   !
                           ! (Angstroms and Degrees)  !
 --------------------------                            --------------------------
 ! Name  Definition              Value          Derivative Info.                !
 --------------------------------------------------------------------------------
 ! R1    R(1,2)                  1.6071         -DE/DX =    0.0                 !
 ! R2    R(1,3)                  1.6071         -DE/DX =    0.0                 !
 ! R3    R(1,4)                  1.4548         -DE/DX =    0.0                 !
 ! R4    R(1,5)                  1.4548         -DE/DX =    0.0                 !
 ! R5    R(2,6)                  0.9802         -DE/DX =    0.0                 !
 ! R6    R(3,7)                  0.9802         -DE/DX =    0.0                 !
 ! A1    A(2,1,3)              103.5145         -DE/DX =    0.0                 !
 ! A2    A(2,1,4)              110.4987         -DE/DX =    0.0                 !
 ! A3    A(2,1,5)              104.7784         -DE/DX =    0.0                 !
 ! A4    A(3,1,4)              104.7784         -DE/DX =    0.0                 !
 ! A5    A(3,1,5)              110.4987         -DE/DX =    0.0                 !
 ! A6    A(4,1,5)              121.4619         -DE/DX =    0.0                 !
 ! A7    A(1,2,6)              111.4211         -DE/DX =    0.0                 !
 ! A8    A(1,3,7)              111.4211         -DE/DX =    0.0                 !
 ! D1    D(3,1,2,6)            -69.2513         -DE/DX =    0.0                 !
 ! D2    D(4,1,2,6)             42.4603         -DE/DX =    0.0                 !
 ! D3    D(5,1,2,6)            174.907          -DE/DX =    0.0                 !
 ! D4    D(2,1,3,7)            -69.2513         -DE/DX =    0.0                 !
 ! D5    D(4,1,3,7)            174.907          -DE/DX =    0.0                 !
 ! D6    D(5,1,3,7)             42.4603         -DE/DX =    0.0                 !
 --------------------------------------------------------------------------------
 GradGradGradGradGradGradGradGradGradGradGradGradGradGradGradGradGradGrad

 Leave Link  103 at Tue Sep 17 19:27:13 2024, MaxMem=   268435456 cpu:         1.0
 (Enter /g100_work/pMI24_ChiCa/g09d1/g09d01/d01/build-node-6-2-59348/src/main/l9999.exe)
 1\1\GINC-R500N002\Freq\RB3LYP\6-31+G(d,p)\H2O4S1\ECABIATI\17-Sep-2024\
 0\\#P Geom=AllCheck Guess=TCheck SCRF=Check GenChk RB3LYP/6-31+G(d,p) 
 Freq\\h2o4s sol\\0,1\S,-0.0374756932,0.,-0.0264993168\O,0.0465122568,0
 .0459823636,1.5777660476\O,1.5030361808,-0.0459823636,-0.4820698396\O,
 -0.5940327771,-1.2683841458,-0.4713672619\O,-0.6424202421,1.2683841458
 ,-0.4029370526\H,0.3700368956,-0.80383158,1.9438217877\H,1.9559983885,
 0.80383158,-0.299066465\\Version=EM64L-G09RevD.01\State=1-A\HF=-700.25
 7188\RMSD=1.134e-09\RMSF=4.483e-05\ZeroPoint=0.0377567\Thermal=0.04296
 52\Dipole=1.7646393,0.,1.2477884\DipoleDeriv=3.2502108,0.0297664,0.020
 6796,0.0194482,3.3816156,-0.0275039,0.0206796,-0.042096,3.2355881,-0.7
 237688,-0.0282444,-0.1701347,-0.0115943,-0.7183791,0.2414893,-0.049296
 4,0.1126072,-1.726546,-1.6840869,-0.0967523,0.2902273,-0.2238135,-0.71
 83791,0.0914277,0.169389,0.0641648,-0.7662279,-0.8528862,-0.1931699,-0
 .1174598,-0.2940505,-1.400533,-0.2544024,-0.1262125,-0.1737318,-0.8811
 82,-0.9546169,0.2281858,-0.0902453,0.3378697,-1.400533,0.1924327,-0.08
 14926,0.1242117,-0.7794514,0.4726554,0.0225888,0.0564504,0.0131676,0.4
 281043,-0.1732717,0.0174959,-0.0478943,0.4688282,0.4924926,0.0376255,0
 .0104824,0.1589729,0.4281043,-0.0701718,0.0494369,-0.0372617,0.4489911
 \Polar=43.1076663,-0.0028317,48.6892777,0.8543237,0.0040047,42.5035683
 \PG=C02 [C2(S1),X(H2O4)]\NImag=0\\0.56815738,-0.00900691,1.04176128,0.
 08616058,0.01273770,0.50723265,-0.05463349,0.00935844,-0.01293048,0.10
 532754,0.01049531,-0.08682664,0.00565113,-0.15016050,0.45438803,-0.006
 71260,-0.01919258,-0.19597425,0.06356420,-0.13233194,0.34630542,-0.186
 44295,0.01497546,0.03988909,-0.00535540,-0.00195093,0.01394144,0.35948
 270,-0.00882637,-0.08682664,-0.00801137,-0.00161424,0.01163017,0.00263
 999,0.17481725,0.45438803,0.03367120,-0.01522075,-0.06416479,0.0300075
 9,0.00240191,-0.02089373,-0.02629322,0.09746203,0.09215026,-0.13854613
 ,-0.15049103,-0.05590018,0.00796711,-0.00768767,-0.00454771,-0.0259737
 3,-0.04508606,-0.00947282,0.14660096,-0.15540723,-0.43878399,-0.125260
 66,-0.00617517,0.00219037,-0.00695980,-0.01031825,-0.01032088,-0.00470
 079,0.18490647,0.47356656,-0.05702917,-0.12566197,-0.11688569,-0.01545
 608,-0.02984756,-0.02246224,0.00557413,0.00345898,0.00766474,0.0643899
 1,0.14670883,0.10934238,-0.15478267,0.16863892,-0.05128868,0.00270189,
 0.01176752,-0.00456424,-0.02536779,0.03070311,-0.00367042,0.01310533,-
 0.01295287,-0.00165551,0.15395382,0.16989929,-0.43878399,0.10476579,0.
 00787137,-0.01032088,0.00816121,0.00862016,0.00219037,0.00350207,0.013
 71221,-0.02935287,0.00889059,-0.19995390,0.47356656,-0.05015969,0.0999
 9698,-0.10064914,-0.01961118,0.04366054,-0.02101088,0.00723795,-0.0027
 0119,0.01087265,-0.00034038,-0.00996447,0.01381098,0.06179028,-0.12542
 855,0.10198953,-0.00068126,-0.00016318,-0.00331830,-0.05755164,0.13542
 271,-0.05902538,-0.00201732,0.00090875,0.00102506,0.00030303,-0.000022
 66,0.00254026,0.00383783,-0.00031109,0.00034996,0.05580418,-0.00213867
 ,0.00472999,0.00607579,0.13848096,-0.37132955,0.15104147,0.00241989,0.
 00026850,-0.00323053,-0.00079559,-0.00296846,-0.00333553,-0.00161275,0
 .00566927,-0.00520157,-0.13591223,0.36423430,-0.01406348,0.03539008,-0
 .03097420,-0.04533999,0.11217705,-0.08452352,-0.00139661,-0.00256305,0
 .00212052,0.00294226,-0.00016378,0.00539430,-0.00094250,0.00014212,-0.
 00415888,0.05846162,-0.14542335,0.11194461,-0.03307088,-0.03331169,-0.
 00261202,0.00154400,0.00211355,-0.00265572,-0.11432552,-0.15090244,-0.
 02526739,-0.00345657,-0.00003030,0.00163646,0.00655160,0.00016197,0.00
 073306,0.00030518,-0.00044161,0.00033870,0.14245221,-0.00501542,0.0047
 2999,0.00404162,0.00223914,0.00026850,-0.00335834,-0.18856358,-0.37132
 955,-0.08021395,0.00544167,0.00566927,-0.00021335,0.00340996,-0.002968
 46,-0.00036175,0.00007770,-0.00060404,0.00044093,0.18241052,0.36423430
 ,0.00813316,0.01195054,0.00141542,-0.00023405,-0.00171112,-0.00144079,
 -0.03895278,-0.09028540,-0.02774965,0.00292892,0.00034067,0.00313552,0
 .00033106,-0.00003323,-0.00085426,-0.00003322,0.00007372,0.00019717,0.
 02782691,0.07966483,0.02529658\\0.00005153,0.,0.00003644,-0.00001243,0
 .00007718,-0.00003530,-0.00003743,-0.00007718,0.00000005,-0.00004689,-
 0.00002758,0.00005102,0.00003247,0.00002758,-0.00006121,-0.00001969,0.
 00006398,0.00004135,0.00003243,-0.00006398,-0.00003235\\\@


  THE LARGE PRINT GIVETH,
  AND THE SMALL PRINT TAKETH AWAY.

                     -- TOM WAITS
 Job cpu time:       0 days  0 hours  1 minutes 47.8 seconds.
 File lengths (MBytes):  RWF=     19 Int=      0 D2E=      0 Chk=      4 Scr=      1
 Normal termination of Gaussian 09 at Tue Sep 17 19:27:13 2024.
