 Entering Gaussian System, Link 0=/g100_work/pMI24_ChiCa/g09d1/g09d01/d01/build-node-6-2-59348/src/main/g09
 Input=geom.com
 Output=geom.log
 Initial command:
 /g100_work/pMI24_ChiCa/g09d1/g09d01/d01/build-node-6-2-59348/src/main/l1.exe "/g100_scratch/userexternal/ecabiati/g16_14416734/Gau-20321.inp" -scrdir="/g100_scratch/userexternal/ecabiati/g16_14416734/"
 Entering Link 1 = /g100_work/pMI24_ChiCa/g09d1/g09d01/d01/build-node-6-2-59348/src/main/l1.exe PID=     20322.
  
 Copyright (c) 1988,1990,1992,1993,1995,1998,2003,2009,2013,
            Gaussian, Inc.  All Rights Reserved.
  
 This is part of the Gaussian(R) 09 program.  It is based on
 the Gaussian(R) 03 system (copyright 2003, Gaussian, Inc.),
 the Gaussian(R) 98 system (copyright 1998, Gaussian, Inc.),
 the Gaussian(R) 94 system (copyright 1995, Gaussian, Inc.),
 the Gaussian 92(TM) system (copyright 1992, Gaussian, Inc.),
 the Gaussian 90(TM) system (copyright 1990, Gaussian, Inc.),
 the Gaussian 88(TM) system (copyright 1988, Gaussian, Inc.),
 the Gaussian 86(TM) system (copyright 1986, Carnegie Mellon
 University), and the Gaussian 82(TM) system (copyright 1983,
 Carnegie Mellon University). Gaussian is a federally registered
 trademark of Gaussian, Inc.
  
 This software contains proprietary and confidential information,
 including trade secrets, belonging to Gaussian, Inc.
  
 This software is provided under written license and may be
 used, copied, transmitted, or stored only in accord with that
 written license.
  
 The following legend is applicable only to US Government
 contracts under FAR:
  
                    RESTRICTED RIGHTS LEGEND
  
 Use, reproduction and disclosure by the US Government is
 subject to restrictions as set forth in subparagraphs (a)
 and (c) of the Commercial Computer Software - Restricted
 Rights clause in FAR 52.227-19.
  
 Gaussian, Inc.
 340 Quinnipiac St., Bldg. 40, Wallingford CT 06492
  
  
 ---------------------------------------------------------------
 Warning -- This program may not be used in any manner that
 competes with the business of Gaussian, Inc. or will provide
 assistance to any competitor of Gaussian, Inc.  The licensee
 of this program is prohibited from giving any competitor of
 Gaussian, Inc. access to this program.  By using this program,
 the user acknowledges that Gaussian, Inc. is engaged in the
 business of creating and licensing software in the field of
 computational chemistry and represents and warrants to the
 licensee that it is not a competitor of Gaussian, Inc. and that
 it will not use this program in any manner prohibited above.
 ---------------------------------------------------------------
  

 Cite this work as:
 Gaussian 09, Revision D.01,
 M. J. Frisch, G. W. Trucks, H. B. Schlegel, G. E. Scuseria, 
 M. A. Robb, J. R. Cheeseman, G. Scalmani, V. Barone, B. Mennucci, 
 G. A. Petersson, H. Nakatsuji, M. Caricato, X. Li, H. P. Hratchian, 
 A. F. Izmaylov, J. Bloino, G. Zheng, J. L. Sonnenberg, M. Hada, 
 M. Ehara, K. Toyota, R. Fukuda, J. Hasegawa, M. Ishida, T. Nakajima, 
 Y. Honda, O. Kitao, H. Nakai, T. Vreven, J. A. Montgomery, Jr., 
 J. E. Peralta, F. Ogliaro, M. Bearpark, J. J. Heyd, E. Brothers, 
 K. N. Kudin, V. N. Staroverov, T. Keith, R. Kobayashi, J. Normand, 
 K. Raghavachari, A. Rendell, J. C. Burant, S. S. Iyengar, J. Tomasi, 
 M. Cossi, N. Rega, J. M. Millam, M. Klene, J. E. Knox, J. B. Cross, 
 V. Bakken, C. Adamo, J. Jaramillo, R. Gomperts, R. E. Stratmann, 
 O. Yazyev, A. J. Austin, R. Cammi, C. Pomelli, J. W. Ochterski, 
 R. L. Martin, K. Morokuma, V. G. Zakrzewski, G. A. Voth, 
 P. Salvador, J. J. Dannenberg, S. Dapprich, A. D. Daniels, 
 O. Farkas, J. B. Foresman, J. V. Ortiz, J. Cioslowski, 
 and D. J. Fox, Gaussian, Inc., Wallingford CT, 2013.
 
 ******************************************
 Gaussian 09:  EM64L-G09RevD.01 24-Apr-2013
                17-Sep-2024 
 ******************************************
 %nproc=24
 Will use up to   24 processors via shared memory.
 %mem=2Gb
 -------------------------------------------------
 #p B3LYP/6-31+g(d,p) opt scrf=(smd,solvent=water)
 -------------------------------------------------
 1/14=-1,18=20,19=15,26=3,38=1/1,3;
 2/9=110,12=2,17=6,18=5,40=1/2;
 3/5=1,6=6,7=111,11=2,16=1,25=1,30=1,70=32201,71=1,72=1,74=-5/1,2,3;
 4//1;
 5/5=2,38=5,53=1/2;
 6/7=2,8=2,9=2,10=2,28=1/1;
 7//1,2,3,16;
 1/14=-1,18=20,19=15,26=3/3(2);
 2/9=110/2;
 99//99;
 2/9=110/2;
 3/5=1,6=6,7=111,11=2,16=1,25=1,30=1,70=32205,71=1,72=1,74=-5/1,2,3;
 4/5=5,16=3,69=1/1;
 5/5=2,38=5,53=1/2;
 7//1,2,3,16;
 1/14=-1,18=20,19=15,26=3/3(-5);
 2/9=110/2;
 6/7=2,8=2,9=2,10=2,19=2,28=1/1;
 99/9=1/99;
 Leave Link    1 at Tue Sep 17 13:38:58 2024, MaxMem=   268435456 cpu:         0.2
 (Enter /g100_work/pMI24_ChiCa/g09d1/g09d01/d01/build-node-6-2-59348/src/main/l101.exe)
 ---------
 h2o4s sol
 ---------
 Symbolic Z-matrix:
 Charge =  0 Multiplicity = 1
 s
 o                    1    os2
 o                    1    os3      2    oso3
 o                    1    os4      2    oso4     3    dih4     0
 o                    1    os5      3    oso5     2    dih5     0
 h                    2    ho6      1    hos6     5    dih6     0
 h                    3    ho7      1    hos7     4    dih7     0
       Variables:
  os2                   1.66                     
  os3                   1.66                     
  oso3                109.471                    
  os4                   1.51                     
  oso4                110.                       
  dih4                120.                       
  os5                   1.51                     
  oso5                110.                       
  dih5                120.                       
  ho6                   0.95                     
  hos6                109.471                    
  dih6                180.                       
  ho7                   0.95                     
  hos7                109.471                    
  dih7                180.                       
 
     3 tetrahedral angles replaced.
 NAtoms=      7 NQM=        7 NQMF=       0 NMMI=      0 NMMIF=      0
                NMic=       0 NMicF=      0.
                    Isotopes and Nuclear Properties:
 (Nuclear quadrupole moments (NQMom) in fm**2, nuclear magnetic moments (NMagM)
  in nuclear magnetons)

  Atom         1           2           3           4           5           6           7
 IAtWgt=          32          16          16          16          16           1           1
 AtmWgt=  31.9720718  15.9949146  15.9949146  15.9949146  15.9949146   1.0078250   1.0078250
 NucSpn=           0           0           0           0           0           1           1
 AtZEff=   0.0000000   0.0000000   0.0000000   0.0000000   0.0000000   0.0000000   0.0000000
 NQMom=    0.0000000   0.0000000   0.0000000   0.0000000   0.0000000   0.0000000   0.0000000
 NMagM=    0.0000000   0.0000000   0.0000000   0.0000000   0.0000000   2.7928460   2.7928460
 AtZNuc=  16.0000000   8.0000000   8.0000000   8.0000000   8.0000000   1.0000000   1.0000000
 Leave Link  101 at Tue Sep 17 13:38:58 2024, MaxMem=   268435456 cpu:         0.2
 (Enter /g100_work/pMI24_ChiCa/g09d1/g09d01/d01/build-node-6-2-59348/src/main/l103.exe)

 GradGradGradGradGradGradGradGradGradGradGradGradGradGradGradGradGradGrad
 Berny optimization.
 Initialization pass.
                           ----------------------------
                           !    Initial Parameters    !
                           ! (Angstroms and Degrees)  !
 --------------------------                            --------------------------
 ! Name  Definition              Value          Derivative Info.                !
 --------------------------------------------------------------------------------
 ! R1    R(1,2)                  1.66           estimate D2E/DX2                !
 ! R2    R(1,3)                  1.66           estimate D2E/DX2                !
 ! R3    R(1,4)                  1.51           estimate D2E/DX2                !
 ! R4    R(1,5)                  1.51           estimate D2E/DX2                !
 ! R5    R(2,6)                  0.95           estimate D2E/DX2                !
 ! R6    R(3,7)                  0.95           estimate D2E/DX2                !
 ! A1    A(2,1,3)              109.4712         estimate D2E/DX2                !
 ! A2    A(2,1,4)              110.0            estimate D2E/DX2                !
 ! A3    A(2,1,5)              109.2062         estimate D2E/DX2                !
 ! A4    A(3,1,4)              109.2062         estimate D2E/DX2                !
 ! A5    A(3,1,5)              110.0            estimate D2E/DX2                !
 ! A6    A(4,1,5)              108.945          estimate D2E/DX2                !
 ! A7    A(1,2,6)              109.4712         estimate D2E/DX2                !
 ! A8    A(1,3,7)              109.4712         estimate D2E/DX2                !
 ! D1    D(3,1,2,6)            -59.5151         estimate D2E/DX2                !
 ! D2    D(4,1,2,6)             60.4849         estimate D2E/DX2                !
 ! D3    D(5,1,2,6)            180.0            estimate D2E/DX2                !
 ! D4    D(2,1,3,7)            -59.5151         estimate D2E/DX2                !
 ! D5    D(4,1,3,7)            180.0            estimate D2E/DX2                !
 ! D6    D(5,1,3,7)             60.4849         estimate D2E/DX2                !
 --------------------------------------------------------------------------------
 Trust Radius=3.00D-01 FncErr=1.00D-07 GrdErr=1.00D-06
 Number of steps in this run=     30 maximum allowed number of steps=    100.
 GradGradGradGradGradGradGradGradGradGradGradGradGradGradGradGradGradGrad

 Leave Link  103 at Tue Sep 17 13:38:58 2024, MaxMem=   268435456 cpu:         0.1
 (Enter /g100_work/pMI24_ChiCa/g09d1/g09d01/d01/build-node-6-2-59348/src/main/l202.exe)
                          Input orientation:                          
 ---------------------------------------------------------------------
 Center     Atomic      Atomic             Coordinates (Angstroms)
 Number     Number       Type             X           Y           Z
 ---------------------------------------------------------------------
      1         16           0        0.000000    0.000000    0.000000
      2          8           0        0.000000    0.000000    1.660000
      3          8           0        1.565063    0.000000   -0.553333
      4          8           0       -0.709468   -1.228834   -0.516450
      5          8           0       -0.723403    1.228834   -0.496743
      6          1           0        0.454383   -0.771854    1.976667
      7          1           0        2.015080    0.771854   -0.230492
 ---------------------------------------------------------------------
                    Distance matrix (angstroms):
                    1          2          3          4          5
     1  S    0.000000
     2  O    1.660000   0.000000
     3  O    1.660000   2.710769   0.000000
     4  O    1.510000   2.598137   2.585515   0.000000
     5  O    1.510000   2.585515   2.598137   2.457788   0.000000
     6  H    2.170123   0.950000   2.868844   2.789088   3.392298
     7  H    2.170123   2.868844   0.950000   3.392298   2.789088
                    6          7
     6  H    0.000000
     7  H    3.112934   0.000000
 Stoichiometry    H2O4S
 Framework group  C2[C2(S),X(H2O4)]
 Deg. of freedom     8
 Full point group                 C2      NOp   2
 Largest Abelian subgroup         C2      NOp   2
 Largest concise Abelian subgroup C2      NOp   2
                         Standard orientation:                         
 ---------------------------------------------------------------------
 Center     Atomic      Atomic             Coordinates (Angstroms)
 Number     Number       Type             X           Y           Z
 ---------------------------------------------------------------------
      1         16           0       -0.000000   -0.000000    0.086393
      2          8           0        0.000000    1.355384   -0.872008
      3          8           0       -0.000000   -1.355384   -0.872008
      4          8           0        1.228834   -0.012068    0.963844
      5          8           0       -1.228834    0.012068    0.963844
      6          1           0        0.771854    1.351603   -1.425838
      7          1           0       -0.771854   -1.351603   -1.425838
 ---------------------------------------------------------------------
 Rotational constants (GHZ):      4.6966868      4.5138868      4.1782607
 Leave Link  202 at Tue Sep 17 13:38:58 2024, MaxMem=   268435456 cpu:         0.2
 (Enter /g100_work/pMI24_ChiCa/g09d1/g09d01/d01/build-node-6-2-59348/src/main/l301.exe)
 Standard basis: 6-31+G(d,p) (6D, 7F)
 Ernie: Thresh=  0.10000D-02 Tol=  0.10000D-05 Strict=F.
 There are    56 symmetry adapted cartesian basis functions of A   symmetry.
 There are    53 symmetry adapted cartesian basis functions of B   symmetry.
 There are    56 symmetry adapted basis functions of A   symmetry.
 There are    53 symmetry adapted basis functions of B   symmetry.
   109 basis functions,   198 primitive gaussians,   109 cartesian basis functions
    25 alpha electrons       25 beta electrons
       nuclear repulsion energy       275.2327868720 Hartrees.
 IExCor=  402 DFT=T Ex+Corr=B3LYP ExCW=0 ScaHFX=  0.200000
 ScaDFX=  0.800000  0.720000  1.000000  0.810000 ScalE2=  1.000000  1.000000
 IRadAn=      0 IRanWt=     -1 IRanGd=            0 ICorTp=0 IEmpDi=  4
 NAtoms=    7 NActive=    7 NUniq=    4 SFac= 3.06D+00 NAtFMM=   60 NAOKFM=F Big=F
 Integral buffers will be    131072 words long.
 Raffenetti 2 integral format.
 Two-electron integral symmetry is turned on.
 ------------------------------------------------------------------------------
 Polarizable Continuum Model (PCM)
 =================================
 Model                : PCM (using non-symmetric T matrix).
 Atomic radii         : SMD-Coulomb.
 Polarization charges : Total charges.
 Charge compensation  : None.
 Solution method      : On-the-fly selection.
 Cavity type          : VdW (van der Waals Surface) (Alpha=1.000).
 Cavity algorithm     : GePol (No added spheres)
                        Default sphere list used, NSphG=    7.
                        Lebedev-Laikov grids with approx.  5.0 points / Ang**2.
                        Smoothing algorithm: Karplus/York (Gamma=1.0000).
                        Polarization charges: spherical gaussians, with
                                              point-specific exponents (IZeta= 3).
                        Self-potential: point-specific (ISelfS= 7).
                        Self-field    : sphere-specific E.n sum rule (ISelfD= 2).
 1st derivatives      : Analytical E(r).r(x)/FMM algorithm (CHGder, D1EAlg=3).
                        Cavity 1st derivative terms included.
 Solvent              : Water, Eps=  78.355300 Eps(inf)=   1.777849
 ------------------------------------------------------------------------------
 Spheres list:
 ISph  on   Nord     Re0    Alpha      Xe            Ye            Ze
    1   S      1    2.4900  1.000     -0.000000     -0.000000      0.086393
    2   O      2    1.5200  1.000      0.000000      1.355384     -0.872008
    3   O      3    1.5200  1.000     -0.000000     -1.355384     -0.872008
    4   O      4    1.5200  1.000      1.228834     -0.012068      0.963844
    5   O      5    1.5200  1.000     -1.228834      0.012068      0.963844
    6   H      6    1.2000  1.000      0.771854      1.351603     -1.425838
    7   H      7    1.2000  1.000     -0.771854     -1.351603     -1.425838
 ------------------------------------------------------------------------------
 GePol: Number of generator spheres                  =       7
 GePol: Total number of spheres                      =       7
 GePol: Number of exposed spheres                    =       7 (100.00%)
 GePol: Number of points                             =     634
 GePol: Average weight of points                     =       0.15
 GePol: Minimum weight of points                     =   0.16D-04
 GePol: Maximum weight of points                     =    0.21991
 GePol: Number of points with low weight             =      22
 GePol: Fraction of low-weight points (<1% of avg)   =       3.47%
 GePol: Cavity surface area                          =     93.883 Ang**2
 GePol: Cavity volume                                =     78.436 Ang**3
 ------------------------------------------------------------------------------
 Atomic radii for non-electrostatic terms: SMD-CDS.
 ------------------------------------------------------------------------------
 PCM non-electrostatic energy =         0.0020680655 Hartrees.
 Nuclear repulsion after PCM non-electrostatic terms =      275.2348549375 Hartrees.
 Leave Link  301 at Tue Sep 17 13:38:58 2024, MaxMem=   268435456 cpu:         0.2
 (Enter /g100_work/pMI24_ChiCa/g09d1/g09d01/d01/build-node-6-2-59348/src/main/l302.exe)
 NPDir=0 NMtPBC=     1 NCelOv=     1 NCel=       1 NClECP=     1 NCelD=      1
         NCelK=      1 NCelE2=     1 NClLst=     1 CellRange=     0.0.
 One-electron integrals computed using PRISM.
 One-electron integral symmetry used in STVInt
 NBasis=   109 RedAO= T EigKep=  2.24D-03  NBF=    56    53
 NBsUse=   109 1.00D-06 EigRej= -1.00D+00 NBFU=    56    53
 Precomputing XC quadrature grid using
 IXCGrd= 4 IRadAn=           0 IRanWt=          -1 IRanGd=           0 AccXCQ= 0.00D+00.
 Generated NRdTot=       0 NPtTot=           0 NUsed=           0 NTot=          32
 NSgBfM=   109   109   109   109   109 MxSgAt=     7 MxSgA2=     7.
 Leave Link  302 at Tue Sep 17 13:38:58 2024, MaxMem=   268435456 cpu:         1.4
 (Enter /g100_work/pMI24_ChiCa/g09d1/g09d01/d01/build-node-6-2-59348/src/main/l303.exe)
 DipDrv:  MaxL=1.
 Leave Link  303 at Tue Sep 17 13:38:58 2024, MaxMem=   268435456 cpu:         0.2
 (Enter /g100_work/pMI24_ChiCa/g09d1/g09d01/d01/build-node-6-2-59348/src/main/l401.exe)
 ExpMin= 4.05D-02 ExpMax= 2.19D+04 ExpMxC= 3.30D+03 IAcc=2 IRadAn=         4 AccDes= 0.00D+00
 Harris functional with IExCor=  402 and IRadAn=       4 diagonalized for initial guess.
 HarFok:  IExCor=  402 AccDes= 0.00D+00 IRadAn=         4 IDoV= 1 UseB2=F ITyADJ=14
 ICtDFT=  3500011 ScaDFX=  1.000000  1.000000  1.000000  1.000000
 FoFCou: FMM=F IPFlag=           0 FMFlag=      100000 FMFlg1=           0
         NFxFlg=           0 DoJE=T BraDBF=F KetDBF=T FulRan=T
         wScrn=  0.000000 ICntrl=     500 IOpCl=  0 I1Cent=   200000004 NGrid=           0
         NMat0=    1 NMatS0=      1 NMatT0=    0 NMatD0=    1 NMtDS0=    0 NMtDT0=    0
 Petite list used in FoFCou.
 Harris En= -700.304900748360    
 JPrj=0 DoOrth=F DoCkMO=F.
 Initial guess orbital symmetries:
       Occupied  (A) (B) (A) (A) (B) (A) (B) (A) (B) (A) (B) (A)
                 (B) (A) (B) (A) (B) (A) (B) (A) (B) (A) (B) (A)
                 (B)
       Virtual   (A) (A) (B) (A) (B) (B) (B) (A) (B) (A) (A) (B)
                 (A) (A) (B) (A) (B) (B) (A) (B) (A) (B) (A) (B)
                 (A) (B) (A) (B) (B) (A) (A) (A) (B) (A) (B) (A)
                 (B) (A) (B) (A) (B) (A) (B) (A) (B) (A) (B) (A)
                 (B) (B) (B) (A) (B) (A) (A) (B) (A) (B) (A) (A)
                 (B) (B) (A) (B) (A) (B) (A) (A) (B) (A) (B) (A)
                 (B) (B) (A) (A) (B) (B) (A) (B) (A) (B) (A) (A)
 The electronic state of the initial guess is 1-A.
 Leave Link  401 at Tue Sep 17 13:38:59 2024, MaxMem=   268435456 cpu:         1.5
 (Enter /g100_work/pMI24_ChiCa/g09d1/g09d01/d01/build-node-6-2-59348/src/main/l502.exe)
 Closed shell SCF:
 Using DIIS extrapolation, IDIIS=  1040.
 Integral symmetry usage will be decided dynamically.
 Keep R1 ints in memory in symmetry-blocked form, NReq=27032647.
 IVT=       57763 IEndB=       57763 NGot=   268435456 MDV=   259375929
 LenX=   259375929 LenY=   259363607
 Requested convergence on RMS density matrix=1.00D-08 within 128 cycles.
 Requested convergence on MAX density matrix=1.00D-06.
 Requested convergence on             energy=1.00D-06.
 No special actions if energy rises.
 FoFCou: FMM=F IPFlag=           0 FMFlag=           0 FMFlg1=           0
         NFxFlg=           0 DoJE=F BraDBF=F KetDBF=F FulRan=T
         wScrn=  0.000000 ICntrl=     600 IOpCl=  0 I1Cent=           0 NGrid=           0
         NMat0=    1 NMatS0=   5995 NMatT0=    0 NMatD0=    1 NMtDS0=    0 NMtDT0=    0
 Petite list used in FoFCou.

 Cycle   1  Pass 1  IDiag  1:
 Inv3:  Mode=1 IEnd=     1205868.
 Iteration    1 A*A^-1 deviation from unit magnitude is 3.55D-15 for     84.
 Iteration    1 A*A^-1 deviation from orthogonality  is 2.44D-15 for    383    254.
 Iteration    1 A^-1*A deviation from unit magnitude is 3.22D-15 for    362.
 Iteration    1 A^-1*A deviation from orthogonality  is 3.65D-15 for    621    590.
 E= -699.901374271559    
 DIIS: error= 3.52D-02 at cycle   1 NSaved=   1.
 NSaved= 1 IEnMin= 1 EnMin= -699.901374271559     IErMin= 1 ErrMin= 3.52D-02
 ErrMax= 3.52D-02  0.00D+00 EMaxC= 1.00D-01 BMatC= 4.42D-01 BMatP= 4.42D-01
 IDIUse=3 WtCom= 6.48D-01 WtEn= 3.52D-01
 Coeff-Com:  0.100D+01
 Coeff-En:   0.100D+01
 Coeff:      0.100D+01
 Gap=     0.105 Goal=   None    Shift=    0.000
 GapD=    0.105 DampG=1.000 DampE=0.500 DampFc=0.5000 IDamp=-1.
 Damping current iteration by 5.00D-01
 RMSDP=1.71D-02 MaxDP=7.04D-01              OVMax= 2.90D-01

 Cycle   2  Pass 1  IDiag  1:
 E= -699.915255695016     Delta-E=       -0.013881423457 Rises=F Damp=T
 DIIS: error= 2.13D-02 at cycle   2 NSaved=   2.
 NSaved= 2 IEnMin= 2 EnMin= -699.915255695016     IErMin= 2 ErrMin= 2.13D-02
 ErrMax= 2.13D-02  0.00D+00 EMaxC= 1.00D-01 BMatC= 9.30D-02 BMatP= 4.42D-01
 IDIUse=3 WtCom= 7.87D-01 WtEn= 2.13D-01
 Coeff-Com:  0.300D+00 0.700D+00
 Coeff-En:   0.485D+00 0.515D+00
 Coeff:      0.339D+00 0.661D+00
 Gap=     0.255 Goal=   None    Shift=    0.000
 RMSDP=4.03D-03 MaxDP=1.18D-01 DE=-1.39D-02 OVMax= 2.14D-01

 Cycle   3  Pass 1  IDiag  1:
 E= -700.220283353729     Delta-E=       -0.305027658713 Rises=F Damp=F
 DIIS: error= 1.08D-02 at cycle   3 NSaved=   3.
 NSaved= 3 IEnMin= 3 EnMin= -700.220283353729     IErMin= 3 ErrMin= 1.08D-02
 ErrMax= 1.08D-02  0.00D+00 EMaxC= 1.00D-01 BMatC= 2.05D-02 BMatP= 9.30D-02
 IDIUse=3 WtCom= 8.92D-01 WtEn= 1.08D-01
 Coeff-Com:  0.172D+00 0.380D+00 0.448D+00
 Coeff-En:   0.000D+00 0.000D+00 0.100D+01
 Coeff:      0.154D+00 0.339D+00 0.508D+00
 Gap=     0.257 Goal=   None    Shift=    0.000
 RMSDP=1.43D-03 MaxDP=2.80D-02 DE=-3.05D-01 OVMax= 3.63D-02

 Cycle   4  Pass 1  IDiag  1:
 E= -700.232364005662     Delta-E=       -0.012080651934 Rises=F Damp=F
 DIIS: error= 5.48D-03 at cycle   4 NSaved=   4.
 NSaved= 4 IEnMin= 4 EnMin= -700.232364005662     IErMin= 4 ErrMin= 5.48D-03
 ErrMax= 5.48D-03  0.00D+00 EMaxC= 1.00D-01 BMatC= 4.43D-03 BMatP= 2.05D-02
 IDIUse=3 WtCom= 9.45D-01 WtEn= 5.48D-02
 Coeff-Com:  0.437D-03 0.147D-01 0.313D+00 0.672D+00
 Coeff-En:   0.000D+00 0.000D+00 0.212D+00 0.788D+00
 Coeff:      0.413D-03 0.139D-01 0.308D+00 0.678D+00
 Gap=     0.259 Goal=   None    Shift=    0.000
 RMSDP=4.75D-04 MaxDP=1.05D-02 DE=-1.21D-02 OVMax= 1.25D-02

 Cycle   5  Pass 1  IDiag  1:
 E= -700.235577788570     Delta-E=       -0.003213782908 Rises=F Damp=F
 DIIS: error= 3.78D-04 at cycle   5 NSaved=   5.
 NSaved= 5 IEnMin= 5 EnMin= -700.235577788570     IErMin= 5 ErrMin= 3.78D-04
 ErrMax= 3.78D-04  0.00D+00 EMaxC= 1.00D-01 BMatC= 2.86D-05 BMatP= 4.43D-03
 IDIUse=3 WtCom= 9.96D-01 WtEn= 3.78D-03
 Coeff-Com: -0.471D-03 0.225D-02 0.102D+00 0.242D+00 0.653D+00
 Coeff-En:   0.000D+00 0.000D+00 0.000D+00 0.000D+00 0.100D+01
 Coeff:     -0.469D-03 0.224D-02 0.102D+00 0.242D+00 0.655D+00
 Gap=     0.258 Goal=   None    Shift=    0.000
 RMSDP=7.29D-05 MaxDP=3.08D-03 DE=-3.21D-03 OVMax= 1.22D-03

 Cycle   6  Pass 1  IDiag  1:
 E= -700.235603549464     Delta-E=       -0.000025760893 Rises=F Damp=F
 DIIS: error= 8.54D-05 at cycle   6 NSaved=   6.
 NSaved= 6 IEnMin= 6 EnMin= -700.235603549464     IErMin= 6 ErrMin= 8.54D-05
 ErrMax= 8.54D-05  0.00D+00 EMaxC= 1.00D-01 BMatC= 2.08D-06 BMatP= 2.86D-05
 IDIUse=1 WtCom= 1.00D+00 WtEn= 0.00D+00
 Coeff-Com: -0.303D-03-0.141D-02 0.243D-02 0.861D-02 0.222D+00 0.769D+00
 Coeff:     -0.303D-03-0.141D-02 0.243D-02 0.861D-02 0.222D+00 0.769D+00
 Gap=     0.259 Goal=   None    Shift=    0.000
 RMSDP=1.53D-05 MaxDP=5.30D-04 DE=-2.58D-05 OVMax= 3.15D-04

 Cycle   7  Pass 1  IDiag  1:
 E= -700.235605385056     Delta-E=       -0.000001835592 Rises=F Damp=F
 DIIS: error= 4.98D-06 at cycle   7 NSaved=   7.
 NSaved= 7 IEnMin= 7 EnMin= -700.235605385056     IErMin= 7 ErrMin= 4.98D-06
 ErrMax= 4.98D-06  0.00D+00 EMaxC= 1.00D-01 BMatC= 6.30D-09 BMatP= 2.08D-06
 IDIUse=1 WtCom= 1.00D+00 WtEn= 0.00D+00
 Coeff-Com: -0.506D-04-0.116D-03-0.116D-02-0.209D-02 0.192D-01 0.883D-01
 Coeff-Com:  0.896D+00
 Coeff:     -0.506D-04-0.116D-03-0.116D-02-0.209D-02 0.192D-01 0.883D-01
 Coeff:      0.896D+00
 Gap=     0.259 Goal=   None    Shift=    0.000
 RMSDP=1.09D-06 MaxDP=1.38D-05 DE=-1.84D-06 OVMax= 2.75D-05

 Cycle   8  Pass 1  IDiag  1:
 E= -700.235605391289     Delta-E=       -0.000000006233 Rises=F Damp=F
 DIIS: error= 1.65D-06 at cycle   8 NSaved=   8.
 NSaved= 8 IEnMin= 8 EnMin= -700.235605391289     IErMin= 8 ErrMin= 1.65D-06
 ErrMax= 1.65D-06  0.00D+00 EMaxC= 1.00D-01 BMatC= 6.74D-10 BMatP= 6.30D-09
 IDIUse=1 WtCom= 1.00D+00 WtEn= 0.00D+00
 Coeff-Com: -0.145D-04 0.442D-04-0.358D-03-0.625D-03-0.439D-02-0.109D-01
 Coeff-Com:  0.109D+00 0.907D+00
 Coeff:     -0.145D-04 0.442D-04-0.358D-03-0.625D-03-0.439D-02-0.109D-01
 Coeff:      0.109D+00 0.907D+00
 Gap=     0.259 Goal=   None    Shift=    0.000
 RMSDP=2.50D-07 MaxDP=5.28D-06 DE=-6.23D-09 OVMax= 5.10D-06

 Cycle   9  Pass 1  IDiag  1:
 E= -700.235605391845     Delta-E=       -0.000000000556 Rises=F Damp=F
 DIIS: error= 2.92D-07 at cycle   9 NSaved=   9.
 NSaved= 9 IEnMin= 9 EnMin= -700.235605391845     IErMin= 9 ErrMin= 2.92D-07
 ErrMax= 2.92D-07  0.00D+00 EMaxC= 1.00D-01 BMatC= 1.74D-11 BMatP= 6.74D-10
 IDIUse=1 WtCom= 1.00D+00 WtEn= 0.00D+00
 Coeff-Com: -0.259D-05 0.505D-05-0.178D-04-0.114D-04-0.333D-03-0.591D-03
 Coeff-Com: -0.916D-02-0.587D-02 0.102D+01
 Coeff:     -0.259D-05 0.505D-05-0.178D-04-0.114D-04-0.333D-03-0.591D-03
 Coeff:     -0.916D-02-0.587D-02 0.102D+01
 Gap=     0.259 Goal=   None    Shift=    0.000
 RMSDP=4.22D-08 MaxDP=7.52D-07 DE=-5.56D-10 OVMax= 1.10D-06

 Cycle  10  Pass 1  IDiag  1:
 E= -700.235605391892     Delta-E=       -0.000000000047 Rises=F Damp=F
 DIIS: error= 2.64D-08 at cycle  10 NSaved=  10.
 NSaved=10 IEnMin=10 EnMin= -700.235605391892     IErMin=10 ErrMin= 2.64D-08
 ErrMax= 2.64D-08  0.00D+00 EMaxC= 1.00D-01 BMatC= 1.16D-13 BMatP= 1.74D-11
 IDIUse=1 WtCom= 1.00D+00 WtEn= 0.00D+00
 Coeff-Com: -0.478D-06 0.260D-06 0.185D-05 0.752D-05 0.348D-04 0.145D-03
 Coeff-Com: -0.338D-02-0.185D-01 0.210D+00 0.812D+00
 Coeff:     -0.478D-06 0.260D-06 0.185D-05 0.752D-05 0.348D-04 0.145D-03
 Coeff:     -0.338D-02-0.185D-01 0.210D+00 0.812D+00
 Gap=     0.259 Goal=   None    Shift=    0.000
 RMSDP=4.25D-09 MaxDP=1.09D-07 DE=-4.73D-11 OVMax= 8.73D-08

 Error on total polarization charges =  0.03004
 SCF Done:  E(RB3LYP) =  -700.235605392     A.U. after   10 cycles
            NFock= 10  Conv=0.43D-08     -V/T= 2.0067
 KE= 6.955674360793D+02 PE=-2.205435230240D+03 EE= 5.343973338310D+02
 SMD-CDS (non-electrostatic) energy       (kcal/mol) =       1.30
 (included in total energy above)
 Leave Link  502 at Tue Sep 17 13:39:00 2024, MaxMem=   268435456 cpu:        22.2
 (Enter /g100_work/pMI24_ChiCa/g09d1/g09d01/d01/build-node-6-2-59348/src/main/l601.exe)
 Copying SCF densities to generalized density rwf, IOpCl= 0 IROHF=0.

 **********************************************************************

            Population analysis using the SCF density.

 **********************************************************************

 Orbital symmetries:
       Occupied  (A) (B) (A) (B) (A) (A) (B) (A) (B) (A) (B) (A)
                 (B) (A) (B) (A) (B) (A) (B) (A) (B) (A) (B) (A)
                 (B)
       Virtual   (A) (A) (B) (B) (A) (B) (B) (A) (B) (A) (A) (B)
                 (A) (A) (B) (A) (B) (B) (A) (B) (A) (B) (A) (B)
                 (A) (B) (B) (A) (B) (A) (A) (A) (B) (A) (B) (A)
                 (B) (B) (A) (A) (B) (A) (B) (A) (A) (B) (B) (A)
                 (B) (B) (A) (B) (B) (A) (A) (B) (A) (B) (A) (A)
                 (B) (B) (A) (B) (A) (B) (A) (A) (B) (A) (B) (A)
                 (B) (B) (A) (A) (B) (B) (A) (A) (B) (A) (B) (A)
 The electronic state is 1-A.
 Alpha  occ. eigenvalues --  -89.21169 -19.25818 -19.25818 -19.19885 -19.19885
 Alpha  occ. eigenvalues --   -8.22768  -6.19377  -6.19243  -6.19104  -1.18772
 Alpha  occ. eigenvalues --   -1.09677  -1.07017  -1.02558  -0.72694  -0.64381
 Alpha  occ. eigenvalues --   -0.54242  -0.52678  -0.51317  -0.45352  -0.42480
 Alpha  occ. eigenvalues --   -0.40869  -0.39239  -0.36955  -0.34777  -0.32905
 Alpha virt. eigenvalues --   -0.07051   0.01147   0.01609   0.02407   0.03509
 Alpha virt. eigenvalues --    0.05080   0.05920   0.08577   0.13656   0.15169
 Alpha virt. eigenvalues --    0.15529   0.15669   0.16920   0.17684   0.20138
 Alpha virt. eigenvalues --    0.21228   0.23574   0.24493   0.25024   0.25859
 Alpha virt. eigenvalues --    0.27056   0.27694   0.28021   0.29993   0.31262
 Alpha virt. eigenvalues --    0.38443   0.50030   0.50589   0.54871   0.56986
 Alpha virt. eigenvalues --    0.58819   0.71090   0.89705   0.96038   0.96273
 Alpha virt. eigenvalues --    0.98936   1.04214   1.11606   1.11871   1.14207
 Alpha virt. eigenvalues --    1.14757   1.16568   1.19041   1.20841   1.21307
 Alpha virt. eigenvalues --    1.21492   1.27019   1.27887   1.31587   1.42319
 Alpha virt. eigenvalues --    1.47801   1.47918   1.52626   1.53076   1.59865
 Alpha virt. eigenvalues --    1.66803   1.68927   1.71567   1.76669   1.78466
 Alpha virt. eigenvalues --    1.79823   1.80661   1.93974   1.97650   2.02963
 Alpha virt. eigenvalues --    2.11358   2.13953   2.28372   2.31139   2.43922
 Alpha virt. eigenvalues --    2.52501   2.60016   2.61404   2.65384   2.68382
 Alpha virt. eigenvalues --    2.70439   2.80735   3.40658   3.41320   3.95748
 Alpha virt. eigenvalues --    3.97890   4.02419   4.07784   4.18616
          Condensed to atoms (all electrons):
               1          2          3          4          5          6
     1  S   13.736063   0.032533   0.032533   0.285042   0.285042   0.031616
     2  O    0.032533   8.467284  -0.035866  -0.079404  -0.042783   0.236714
     3  O    0.032533  -0.035866   8.467284  -0.042783  -0.079404  -0.006440
     4  O    0.285042  -0.079404  -0.042783   8.643272  -0.140931  -0.004816
     5  O    0.285042  -0.042783  -0.079404  -0.140931   8.643272   0.006450
     6  H    0.031616   0.236714  -0.006440  -0.004816   0.006450   0.280179
     7  H    0.031616  -0.006440   0.236714   0.006450  -0.004816   0.000206
               7
     1  S    0.031616
     2  O   -0.006440
     3  O    0.236714
     4  O    0.006450
     5  O   -0.004816
     6  H    0.000206
     7  H    0.280179
 Mulliken charges:
               1
     1  S    1.565554
     2  O   -0.572039
     3  O   -0.572039
     4  O   -0.666830
     5  O   -0.666830
     6  H    0.456091
     7  H    0.456091
 Sum of Mulliken charges =  -0.00000
 Mulliken charges with hydrogens summed into heavy atoms:
               1
     1  S    1.565554
     2  O   -0.115947
     3  O   -0.115947
     4  O   -0.666830
     5  O   -0.666830
 Electronic spatial extent (au):  <R**2>=            399.2247
 Charge=              0.0000 electrons
 Dipole moment (field-independent basis, Debye):
    X=              0.0000    Y=              0.0000    Z=             -7.0160  Tot=              7.0160
 Quadrupole moment (field-independent basis, Debye-Ang):
   XX=            -39.4357   YY=            -34.4094   ZZ=            -32.6776
   XY=              5.2268   XZ=             -0.0000   YZ=              0.0000
 Traceless Quadrupole moment (field-independent basis, Debye-Ang):
   XX=             -3.9281   YY=              1.0982   ZZ=              2.8299
   XY=              5.2268   XZ=             -0.0000   YZ=              0.0000
 Octapole moment (field-independent basis, Debye-Ang**2):
  XXX=              0.0000  YYY=              0.0000  ZZZ=            -19.8434  XYY=             -0.0000
  XXY=              0.0000  XXZ=            -12.7565  XZZ=              0.0000  YZZ=              0.0000
  YYZ=             -7.3743  XYZ=             -7.8934
 Hexadecapole moment (field-independent basis, Debye-Ang**3):
 XXXX=           -154.7437 YYYY=           -164.3654 ZZZZ=           -144.8663 XXXY=              2.5762
 XXXZ=              0.0000 YYYX=              8.8009 YYYZ=              0.0000 ZZZX=             -0.0000
 ZZZY=             -0.0000 XXYY=            -46.8411 XXZZ=            -48.9530 YYZZ=            -40.8546
 XXYZ=              0.0000 YYXZ=              0.0000 ZZXY=             11.7133
 N-N= 2.752348549375D+02 E-N=-2.205435231771D+03  KE= 6.955674360793D+02
 Symmetry A    KE= 4.697164464398D+02
 Symmetry B    KE= 2.258509896395D+02
 No NMR shielding tensors so no spin-rotation constants.
 Leave Link  601 at Tue Sep 17 13:39:00 2024, MaxMem=   268435456 cpu:         1.6
 (Enter /g100_work/pMI24_ChiCa/g09d1/g09d01/d01/build-node-6-2-59348/src/main/l701.exe)
 Compute integral first derivatives.
 ... and contract with generalized density number  0.
 D1PCM: PCM CHGder 1st derivatives, ID1Alg=3 FixD1E=F DoIter=F DoCFld=F I1PDM=0.
 GePol: Maximum number of non-zero 1st derivatives   =     396
 Leave Link  701 at Tue Sep 17 13:39:00 2024, MaxMem=   268435456 cpu:         4.4
 (Enter /g100_work/pMI24_ChiCa/g09d1/g09d01/d01/build-node-6-2-59348/src/main/l702.exe)
 L702 exits ... SP integral derivatives will be done elsewhere.
 Leave Link  702 at Tue Sep 17 13:39:00 2024, MaxMem=   268435456 cpu:         0.1
 (Enter /g100_work/pMI24_ChiCa/g09d1/g09d01/d01/build-node-6-2-59348/src/main/l703.exe)
 Compute integral first derivatives, UseDBF=F ICtDFT=           0.
 Integral derivatives from FoFJK, PRISM(SPDF).
 Calling FoFJK, ICntrl=      2127 FMM=F ISym2X=1 I1Cent= 0 IOpClX= 0 NMat=1 NMatS=1 NMatT=0.
 FoFJK:  IHMeth= 1 ICntrl=    2127 DoSepK=F KAlg= 0 I1Cent=   0 FoldK=F
 IRaf=         0 NMat=   1 IRICut=       1 DoRegI=T DoRafI=F ISym2E= 1.
 FoFCou: FMM=F IPFlag=           0 FMFlag=      100000 FMFlg1=         800
         NFxFlg=           0 DoJE=F BraDBF=F KetDBF=F FulRan=T
         wScrn=  0.000000 ICntrl=    2127 IOpCl=  0 I1Cent=           0 NGrid=           0
         NMat0=    1 NMatS0=      1 NMatT0=    0 NMatD0=    1 NMtDS0=    0 NMtDT0=    0
 Petite list used in FoFCou.
 Leave Link  703 at Tue Sep 17 13:39:01 2024, MaxMem=   268435456 cpu:         5.2
 (Enter /g100_work/pMI24_ChiCa/g09d1/g09d01/d01/build-node-6-2-59348/src/main/l716.exe)
 Dipole        =-2.22044605D-16 1.77635684D-15-2.76030811D+00
 ***** Axes restored to original set *****
 -------------------------------------------------------------------
 Center     Atomic                   Forces (Hartrees/Bohr)
 Number     Number              X              Y              Z
 -------------------------------------------------------------------
      1       16          -0.064022401   -0.000000000   -0.045270674
      2        8          -0.005500528    0.031930629   -0.042087974
      3        8          -0.041514432   -0.031930629    0.008843378
      4        8           0.042692089    0.023246955    0.023180413
      5        8           0.036085399   -0.023246955    0.032523683
      6        1           0.015515531   -0.027606075    0.012274488
      7        1           0.016744342    0.027606075    0.010536687
 -------------------------------------------------------------------
 Cartesian Forces:  Max     0.064022401 RMS     0.030782225
 Leave Link  716 at Tue Sep 17 13:39:01 2024, MaxMem=   268435456 cpu:         0.1
 (Enter /g100_work/pMI24_ChiCa/g09d1/g09d01/d01/build-node-6-2-59348/src/main/l103.exe)

 GradGradGradGradGradGradGradGradGradGradGradGradGradGradGradGradGradGrad
 Berny optimization.
 FormGI is forming the generalized inverse of G from B-inverse, IUseBI=4.
 Internal  Forces:  Max     0.046905207 RMS     0.024480238
 Search for a local minimum.
 Step number   1 out of a maximum of   30
 All quantities printed in internal units (Hartrees-Bohrs-Radians)
 RMS Force = .24480D-01 SwitMx=.10000D-02 MixMth= 1
 Mixed Optimization -- RFO/linear search
 Second derivative matrix not updated -- first step.
 The second derivative matrix:
                          R1        R2        R3        R4        R5
           R1           0.41169
           R2           0.00000   0.41169
           R3           0.00000   0.00000   0.73458
           R4           0.00000   0.00000   0.00000   0.73458
           R5           0.00000   0.00000   0.00000   0.00000   0.57681
           R6           0.00000   0.00000   0.00000   0.00000   0.00000
           A1           0.00000   0.00000   0.00000   0.00000   0.00000
           A2           0.00000   0.00000   0.00000   0.00000   0.00000
           A3           0.00000   0.00000   0.00000   0.00000   0.00000
           A4           0.00000   0.00000   0.00000   0.00000   0.00000
           A5           0.00000   0.00000   0.00000   0.00000   0.00000
           A6           0.00000   0.00000   0.00000   0.00000   0.00000
           A7           0.00000   0.00000   0.00000   0.00000   0.00000
           A8           0.00000   0.00000   0.00000   0.00000   0.00000
           D1           0.00000   0.00000   0.00000   0.00000   0.00000
           D2           0.00000   0.00000   0.00000   0.00000   0.00000
           D3           0.00000   0.00000   0.00000   0.00000   0.00000
           D4           0.00000   0.00000   0.00000   0.00000   0.00000
           D5           0.00000   0.00000   0.00000   0.00000   0.00000
           D6           0.00000   0.00000   0.00000   0.00000   0.00000
                          R6        A1        A2        A3        A4
           R6           0.57681
           A1           0.00000   0.25000
           A2           0.00000   0.00000   0.25000
           A3           0.00000   0.00000   0.00000   0.25000
           A4           0.00000   0.00000   0.00000   0.00000   0.25000
           A5           0.00000   0.00000   0.00000   0.00000   0.00000
           A6           0.00000   0.00000   0.00000   0.00000   0.00000
           A7           0.00000   0.00000   0.00000   0.00000   0.00000
           A8           0.00000   0.00000   0.00000   0.00000   0.00000
           D1           0.00000   0.00000   0.00000   0.00000   0.00000
           D2           0.00000   0.00000   0.00000   0.00000   0.00000
           D3           0.00000   0.00000   0.00000   0.00000   0.00000
           D4           0.00000   0.00000   0.00000   0.00000   0.00000
           D5           0.00000   0.00000   0.00000   0.00000   0.00000
           D6           0.00000   0.00000   0.00000   0.00000   0.00000
                          A5        A6        A7        A8        D1
           A5           0.25000
           A6           0.00000   0.25000
           A7           0.00000   0.00000   0.16000
           A8           0.00000   0.00000   0.00000   0.16000
           D1           0.00000   0.00000   0.00000   0.00000   0.01825
           D2           0.00000   0.00000   0.00000   0.00000   0.00000
           D3           0.00000   0.00000   0.00000   0.00000   0.00000
           D4           0.00000   0.00000   0.00000   0.00000   0.00000
           D5           0.00000   0.00000   0.00000   0.00000   0.00000
           D6           0.00000   0.00000   0.00000   0.00000   0.00000
                          D2        D3        D4        D5        D6
           D2           0.01825
           D3           0.00000   0.01825
           D4           0.00000   0.00000   0.01825
           D5           0.00000   0.00000   0.00000   0.01825
           D6           0.00000   0.00000   0.00000   0.00000   0.01825
 ITU=  0
     Eigenvalues ---    0.01825   0.01825   0.12684   0.14154   0.16000
     Eigenvalues ---    0.16000   0.18702   0.22436   0.25000   0.41169
     Eigenvalues ---    0.41169   0.57681   0.57681   0.73458   0.73458
 RFO step:  Lambda=-3.30329643D-02 EMin= 1.82525757D-02
 Linear search not attempted -- first point.
 Iteration  1 RMS(Cart)=  0.10121890 RMS(Int)=  0.00630697
 Iteration  2 RMS(Cart)=  0.00708492 RMS(Int)=  0.00290602
 Iteration  3 RMS(Cart)=  0.00001070 RMS(Int)=  0.00290601
 Iteration  4 RMS(Cart)=  0.00000004 RMS(Int)=  0.00290601
 ITry= 1 IFail=0 DXMaxC= 1.62D-01 DCOld= 1.00D+10 DXMaxT= 3.00D-01 DXLimC= 3.00D+00 Rises=F
 ClnCor:  largest displacement from symmetrization is 9.93D-14 for atom     7.
 Variable       Old X    -DE/DX   Delta X   Delta X   Delta X     New X
                                 (Linear)    (Quad)   (Total)
    R1        3.13695  -0.02976   0.00000  -0.06691  -0.06691   3.07004
    R2        3.13695  -0.02976   0.00000  -0.06691  -0.06691   3.07004
    R3        2.85349  -0.04691   0.00000  -0.06111  -0.06111   2.79238
    R4        2.85349  -0.04691   0.00000  -0.06111  -0.06111   2.79238
    R5        1.79524   0.03384   0.00000   0.05549   0.05549   1.85073
    R6        1.79524   0.03384   0.00000   0.05549   0.05549   1.85073
    A1        1.91063  -0.02142   0.00000  -0.11513  -0.12051   1.79013
    A2        1.91986   0.00513   0.00000   0.01134   0.00572   1.92558
    A3        1.90601  -0.01165   0.00000  -0.05379  -0.05781   1.84820
    A4        1.90601  -0.01165   0.00000  -0.05379  -0.05781   1.84820
    A5        1.91986   0.00513   0.00000   0.01134   0.00572   1.92558
    A6        1.90145   0.03478   0.00000   0.20170   0.20075   2.10220
    A7        1.91063   0.00200   0.00000   0.01037   0.01037   1.92100
    A8        1.91063   0.00200   0.00000   0.01037   0.01037   1.92100
    D1       -1.03873   0.00317   0.00000   0.00711   0.00940  -1.02934
    D2        1.05566  -0.02137   0.00000  -0.12398  -0.12247   0.93319
    D3        3.14159   0.01717   0.00000   0.09684   0.09305  -3.04854
    D4       -1.03873   0.00317   0.00000   0.00711   0.00940  -1.02934
    D5        3.14159   0.01717   0.00000   0.09684   0.09305  -3.04854
    D6        1.05566  -0.02137   0.00000  -0.12398  -0.12247   0.93319
         Item               Value     Threshold  Converged?
 Maximum Force            0.046905     0.000450     NO 
 RMS     Force            0.024480     0.000300     NO 
 Maximum Displacement     0.162488     0.001800     NO 
 RMS     Displacement     0.102958     0.001200     NO 
 Predicted change in Energy=-1.846162D-02
 Lowest energy point so far.  Saving SCF results.
 GradGradGradGradGradGradGradGradGradGradGradGradGradGradGradGradGradGrad

 Leave Link  103 at Tue Sep 17 13:39:01 2024, MaxMem=   268435456 cpu:         1.5
 (Enter /g100_work/pMI24_ChiCa/g09d1/g09d01/d01/build-node-6-2-59348/src/main/l202.exe)
                          Input orientation:                          
 ---------------------------------------------------------------------
 Center     Atomic      Atomic             Coordinates (Angstroms)
 Number     Number       Type             X           Y           Z
 ---------------------------------------------------------------------
      1         16           0       -0.066566   -0.000000   -0.047069
      2          8           0        0.031659    0.041722    1.574015
      3          8           0        1.494549   -0.041722   -0.494823
      4          8           0       -0.649900   -1.282273   -0.493151
      5          8           0       -0.681581    1.282273   -0.448348
      6          1           0        0.510154   -0.747315    1.902069
      7          1           0        1.963339    0.747315   -0.153045
 ---------------------------------------------------------------------
                    Distance matrix (angstroms):
                    1          2          3          4          5
     1  S    0.000000
     2  O    1.624593   0.000000
     3  O    1.624593   2.535173   0.000000
     4  O    1.477664   2.547678   2.477424   0.000000
     5  O    1.477664   2.477424   2.547678   2.565133   0.000000
     6  H    2.165693   0.979365   2.685514   2.714587   3.326247
     7  H    2.165693   2.685514   0.979365   3.326247   2.714587
                    6          7
     6  H    0.000000
     7  H    2.927312   0.000000
 Stoichiometry    H2O4S
 Framework group  C2[C2(S),X(H2O4)]
 Deg. of freedom     8
 Full point group                 C2      NOp   2
 RotChk:  IX=0 Diff= 4.66D-02
 Largest Abelian subgroup         C2      NOp   2
 Largest concise Abelian subgroup C2      NOp   2
                         Standard orientation:                         
 ---------------------------------------------------------------------
 Center     Atomic      Atomic             Coordinates (Angstroms)
 Number     Number       Type             X           Y           Z
 ---------------------------------------------------------------------
      1         16           0       -0.000000   -0.000000    0.154184
      2          8           0       -0.000000    1.267587   -0.861949
      3          8           0        0.000000   -1.267587   -0.861949
      4          8           0        1.280675   -0.069627    0.888020
      5          8           0       -1.280675    0.069627    0.888020
      6          1           0        0.788333    1.233215   -1.442041
      7          1           0       -0.788333   -1.233215   -1.442041
 ---------------------------------------------------------------------
 Rotational constants (GHZ):      4.7217430      4.6647011      4.6351212
 Leave Link  202 at Tue Sep 17 13:39:01 2024, MaxMem=   268435456 cpu:         0.1
 (Enter /g100_work/pMI24_ChiCa/g09d1/g09d01/d01/build-node-6-2-59348/src/main/l301.exe)
 Standard basis: 6-31+G(d,p) (6D, 7F)
 Ernie: Thresh=  0.10000D-02 Tol=  0.10000D-05 Strict=F.
 There are    56 symmetry adapted cartesian basis functions of A   symmetry.
 There are    53 symmetry adapted cartesian basis functions of B   symmetry.
 There are    56 symmetry adapted basis functions of A   symmetry.
 There are    53 symmetry adapted basis functions of B   symmetry.
   109 basis functions,   198 primitive gaussians,   109 cartesian basis functions
    25 alpha electrons       25 beta electrons
       nuclear repulsion energy       281.0165113144 Hartrees.
 IExCor=  402 DFT=T Ex+Corr=B3LYP ExCW=0 ScaHFX=  0.200000
 ScaDFX=  0.800000  0.720000  1.000000  0.810000 ScalE2=  1.000000  1.000000
 IRadAn=      0 IRanWt=     -1 IRanGd=            0 ICorTp=0 IEmpDi=  4
 NAtoms=    7 NActive=    7 NUniq=    4 SFac= 3.06D+00 NAtFMM=   60 NAOKFM=F Big=F
 Integral buffers will be    131072 words long.
 Raffenetti 2 integral format.
 Two-electron integral symmetry is turned on.
 ------------------------------------------------------------------------------
 Polarizable Continuum Model (PCM)
 =================================
 Model                : PCM (using non-symmetric T matrix).
 Atomic radii         : SMD-Coulomb.
 Polarization charges : Total charges.
 Charge compensation  : None.
 Solution method      : On-the-fly selection.
 Cavity type          : VdW (van der Waals Surface) (Alpha=1.000).
 Cavity algorithm     : GePol (No added spheres)
                        Default sphere list used, NSphG=    7.
                        Lebedev-Laikov grids with approx.  5.0 points / Ang**2.
                        Smoothing algorithm: Karplus/York (Gamma=1.0000).
                        Polarization charges: spherical gaussians, with
                                              point-specific exponents (IZeta= 3).
                        Self-potential: point-specific (ISelfS= 7).
                        Self-field    : sphere-specific E.n sum rule (ISelfD= 2).
 1st derivatives      : Analytical E(r).r(x)/FMM algorithm (CHGder, D1EAlg=3).
                        Cavity 1st derivative terms included.
 Solvent              : Water, Eps=  78.355300 Eps(inf)=   1.777849
 ------------------------------------------------------------------------------
 Spheres list:
 ISph  on   Nord     Re0    Alpha      Xe            Ye            Ze
    1   S      1    2.4900  1.000     -0.000000     -0.000000      0.154184
    2   O      2    1.5200  1.000     -0.000000      1.267587     -0.861949
    3   O      3    1.5200  1.000      0.000000     -1.267587     -0.861949
    4   O      4    1.5200  1.000      1.280675     -0.069627      0.888020
    5   O      5    1.5200  1.000     -1.280675      0.069627      0.888020
    6   H      6    1.2000  1.000      0.788333      1.233215     -1.442041
    7   H      7    1.2000  1.000     -0.788333     -1.233215     -1.442041
 ------------------------------------------------------------------------------
 GePol: Number of generator spheres                  =       7
 GePol: Total number of spheres                      =       7
 GePol: Number of exposed spheres                    =       7 (100.00%)
 GePol: Number of points                             =     628
 GePol: Average weight of points                     =       0.15
 GePol: Minimum weight of points                     =   0.16D-09
 GePol: Maximum weight of points                     =    0.21991
 GePol: Number of points with low weight             =      22
 GePol: Fraction of low-weight points (<1% of avg)   =       3.50%
 GePol: Cavity surface area                          =     93.042 Ang**2
 GePol: Cavity volume                                =     77.639 Ang**3
 ------------------------------------------------------------------------------
 Atomic radii for non-electrostatic terms: SMD-CDS.
 ------------------------------------------------------------------------------
 PCM non-electrostatic energy =         0.0020124490 Hartrees.
 Nuclear repulsion after PCM non-electrostatic terms =      281.0185237634 Hartrees.
 Leave Link  301 at Tue Sep 17 13:39:01 2024, MaxMem=   268435456 cpu:         0.2
 (Enter /g100_work/pMI24_ChiCa/g09d1/g09d01/d01/build-node-6-2-59348/src/main/l302.exe)
 NPDir=0 NMtPBC=     1 NCelOv=     1 NCel=       1 NClECP=     1 NCelD=      1
         NCelK=      1 NCelE2=     1 NClLst=     1 CellRange=     0.0.
 One-electron integrals computed using PRISM.
 One-electron integral symmetry used in STVInt
 NBasis=   109 RedAO= T EigKep=  2.08D-03  NBF=    56    53
 NBsUse=   109 1.00D-06 EigRej= -1.00D+00 NBFU=    56    53
 Precomputing XC quadrature grid using
 IXCGrd= 4 IRadAn=           0 IRanWt=          -1 IRanGd=           0 AccXCQ= 0.00D+00.
 Generated NRdTot=       0 NPtTot=           0 NUsed=           0 NTot=          32
 NSgBfM=   109   109   109   109   109 MxSgAt=     7 MxSgA2=     7.
 Leave Link  302 at Tue Sep 17 13:39:01 2024, MaxMem=   268435456 cpu:         1.4
 (Enter /g100_work/pMI24_ChiCa/g09d1/g09d01/d01/build-node-6-2-59348/src/main/l303.exe)
 DipDrv:  MaxL=1.
 Leave Link  303 at Tue Sep 17 13:39:01 2024, MaxMem=   268435456 cpu:         0.2
 (Enter /g100_work/pMI24_ChiCa/g09d1/g09d01/d01/build-node-6-2-59348/src/main/l401.exe)
 Initial guess from the checkpoint file:  "/g100_scratch/userexternal/ecabiati/g16_14416734/Gau-20322.chk"
 B after Tr=    -0.000000    0.000000   -0.000000
         Rot=    0.999931   -0.000000    0.000000    0.011782 Ang=   1.35 deg.
 Guess basis will be translated and rotated to current coordinates.
 JPrj=2 DoOrth=T DoCkMO=T.
 Initial guess orbital symmetries:
       Occupied  (A) (B) (A) (B) (A) (A) (B) (A) (B) (A) (B) (A)
                 (B) (A) (B) (A) (B) (A) (B) (A) (B) (A) (B) (A)
                 (B)
       Virtual   (A) (A) (A) (A) (A) (A) (A) (A) (A) (A) (A) (A)
                 (A) (A) (A) (A) (A) (A) (A) (A) (A) (A) (A) (A)
                 (A) (A) (A) (A) (A) (A) (A) (A) (A) (A) (A) (A)
                 (A) (A) (A) (A) (A) (A) (A) (B) (B) (B) (B) (B)
                 (B) (B) (B) (B) (B) (B) (B) (B) (B) (B) (B) (B)
                 (B) (B) (B) (B) (B) (B) (B) (B) (B) (B) (B) (B)
                 (B) (B) (B) (B) (B) (B) (B) (B) (B) (B) (B) (B)
 The electronic state of the initial guess is 1-A.
 Generating alternative initial guess.
 ExpMin= 4.05D-02 ExpMax= 2.19D+04 ExpMxC= 3.30D+03 IAcc=2 IRadAn=         4 AccDes= 0.00D+00
 Harris functional with IExCor=  402 and IRadAn=       4 diagonalized for initial guess.
 HarFok:  IExCor=  402 AccDes= 0.00D+00 IRadAn=         4 IDoV= 1 UseB2=F ITyADJ=14
 ICtDFT=  3500011 ScaDFX=  1.000000  1.000000  1.000000  1.000000
 FoFCou: FMM=F IPFlag=           0 FMFlag=      100000 FMFlg1=           0
         NFxFlg=           0 DoJE=T BraDBF=F KetDBF=T FulRan=T
         wScrn=  0.000000 ICntrl=     500 IOpCl=  0 I1Cent=   200000004 NGrid=           0
         NMat0=    1 NMatS0=      1 NMatT0=    0 NMatD0=    1 NMtDS0=    0 NMtDT0=    0
 Petite list used in FoFCou.
 Harris En= -700.308955014133    
 Leave Link  401 at Tue Sep 17 13:39:01 2024, MaxMem=   268435456 cpu:         1.9
 (Enter /g100_work/pMI24_ChiCa/g09d1/g09d01/d01/build-node-6-2-59348/src/main/l502.exe)
 Closed shell SCF:
 Using DIIS extrapolation, IDIIS=  1040.
 Integral symmetry usage will be decided dynamically.
 Keep R1 ints in memory in symmetry-blocked form, NReq=27032647.
 IVT=       57763 IEndB=       57763 NGot=   268435456 MDV=   259375929
 LenX=   259375929 LenY=   259363607
 Requested convergence on RMS density matrix=1.00D-08 within 128 cycles.
 Requested convergence on MAX density matrix=1.00D-06.
 Requested convergence on             energy=1.00D-06.
 No special actions if energy rises.
 FoFCou: FMM=F IPFlag=           0 FMFlag=           0 FMFlg1=           0
         NFxFlg=           0 DoJE=F BraDBF=F KetDBF=F FulRan=T
         wScrn=  0.000000 ICntrl=     600 IOpCl=  0 I1Cent=           0 NGrid=           0
         NMat0=    1 NMatS0=   5995 NMatT0=    0 NMatD0=    1 NMtDS0=    0 NMtDT0=    0
 Petite list used in FoFCou.

 Cycle   1  Pass 1  IDiag  1:
 Inv3:  Mode=1 IEnd=     1183152.
 Iteration    1 A*A^-1 deviation from unit magnitude is 3.55D-15 for    339.
 Iteration    1 A*A^-1 deviation from orthogonality  is 2.89D-15 for    488    178.
 Iteration    1 A^-1*A deviation from unit magnitude is 3.66D-15 for    353.
 Iteration    1 A^-1*A deviation from orthogonality  is 8.88D-16 for    315    298.
 E= -700.232617416515    
 DIIS: error= 7.18D-03 at cycle   1 NSaved=   1.
 NSaved= 1 IEnMin= 1 EnMin= -700.232617416515     IErMin= 1 ErrMin= 7.18D-03
 ErrMax= 7.18D-03  0.00D+00 EMaxC= 1.00D-01 BMatC= 1.21D-02 BMatP= 1.21D-02
 IDIUse=3 WtCom= 9.28D-01 WtEn= 7.18D-02
 Coeff-Com:  0.100D+01
 Coeff-En:   0.100D+01
 Coeff:      0.100D+01
 Gap=     0.591 Goal=   None    Shift=    0.000
 GapD=    0.591 DampG=2.000 DampE=1.000 DampFc=2.0000 IDamp=-1.
 RMSDP=2.52D-03 MaxDP=3.22D-02              OVMax= 7.24D-02

 Cycle   2  Pass 1  IDiag  1:
 E= -700.253771921941     Delta-E=       -0.021154505426 Rises=F Damp=F
 DIIS: error= 2.79D-03 at cycle   2 NSaved=   2.
 NSaved= 2 IEnMin= 2 EnMin= -700.253771921941     IErMin= 2 ErrMin= 2.79D-03
 ErrMax= 2.79D-03  0.00D+00 EMaxC= 1.00D-01 BMatC= 1.61D-03 BMatP= 1.21D-02
 IDIUse=3 WtCom= 9.72D-01 WtEn= 2.79D-02
 Coeff-Com:  0.115D+00 0.885D+00
 Coeff-En:   0.000D+00 0.100D+01
 Coeff:      0.112D+00 0.888D+00
 Gap=     0.307 Goal=   None    Shift=    0.000
 RMSDP=7.04D-04 MaxDP=1.10D-02 DE=-2.12D-02 OVMax= 1.70D-02

 Cycle   3  Pass 1  IDiag  1:
 E= -700.252706589532     Delta-E=        0.001065332410 Rises=F Damp=F
 DIIS: error= 4.04D-03 at cycle   3 NSaved=   3.
 NSaved= 3 IEnMin= 2 EnMin= -700.253771921941     IErMin= 2 ErrMin= 2.79D-03
 ErrMax= 4.04D-03  0.00D+00 EMaxC= 1.00D-01 BMatC= 3.23D-03 BMatP= 1.61D-03
 IDIUse=3 WtCom= 1.36D-01 WtEn= 8.64D-01
 Coeff-Com: -0.392D-01 0.608D+00 0.431D+00
 Coeff-En:   0.000D+00 0.627D+00 0.373D+00
 Coeff:     -0.534D-02 0.625D+00 0.381D+00
 Gap=     0.310 Goal=   None    Shift=    0.000
 RMSDP=4.19D-04 MaxDP=6.60D-03 DE= 1.07D-03 OVMax= 1.09D-02

 Cycle   4  Pass 1  IDiag  1:
 E= -700.255077500573     Delta-E=       -0.002370911041 Rises=F Damp=F
 DIIS: error= 3.35D-04 at cycle   4 NSaved=   4.
 NSaved= 4 IEnMin= 4 EnMin= -700.255077500573     IErMin= 4 ErrMin= 3.35D-04
 ErrMax= 3.35D-04  0.00D+00 EMaxC= 1.00D-01 BMatC= 2.63D-05 BMatP= 1.61D-03
 IDIUse=3 WtCom= 9.97D-01 WtEn= 3.35D-03
 Coeff-Com: -0.220D-01 0.199D+00 0.121D+00 0.702D+00
 Coeff-En:   0.000D+00 0.000D+00 0.000D+00 0.100D+01
 Coeff:     -0.219D-01 0.198D+00 0.121D+00 0.703D+00
 Gap=     0.310 Goal=   None    Shift=    0.000
 RMSDP=8.09D-05 MaxDP=3.46D-03 DE=-2.37D-03 OVMax= 1.58D-03

 Cycle   5  Pass 1  IDiag  1:
 E= -700.255095722671     Delta-E=       -0.000018222098 Rises=F Damp=F
 DIIS: error= 2.03D-04 at cycle   5 NSaved=   5.
 NSaved= 5 IEnMin= 5 EnMin= -700.255095722671     IErMin= 5 ErrMin= 2.03D-04
 ErrMax= 2.03D-04  0.00D+00 EMaxC= 1.00D-01 BMatC= 8.29D-06 BMatP= 2.63D-05
 IDIUse=3 WtCom= 9.98D-01 WtEn= 2.03D-03
 Coeff-Com: -0.685D-02 0.520D-01 0.267D-01 0.390D+00 0.538D+00
 Coeff-En:   0.000D+00 0.000D+00 0.000D+00 0.162D+00 0.838D+00
 Coeff:     -0.683D-02 0.519D-01 0.266D-01 0.390D+00 0.538D+00
 Gap=     0.310 Goal=   None    Shift=    0.000
 RMSDP=2.93D-05 MaxDP=1.37D-03 DE=-1.82D-05 OVMax= 5.41D-04

 Cycle   6  Pass 1  IDiag  1:
 E= -700.255101997708     Delta-E=       -0.000006275037 Rises=F Damp=F
 DIIS: error= 5.86D-05 at cycle   6 NSaved=   6.
 NSaved= 6 IEnMin= 6 EnMin= -700.255101997708     IErMin= 6 ErrMin= 5.86D-05
 ErrMax= 5.86D-05  0.00D+00 EMaxC= 1.00D-01 BMatC= 4.48D-07 BMatP= 8.29D-06
 IDIUse=1 WtCom= 1.00D+00 WtEn= 0.00D+00
 Coeff-Com: -0.119D-02 0.454D-02 0.702D-03 0.123D+00 0.251D+00 0.621D+00
 Coeff:     -0.119D-02 0.454D-02 0.702D-03 0.123D+00 0.251D+00 0.621D+00
 Gap=     0.310 Goal=   None    Shift=    0.000
 RMSDP=5.81D-06 MaxDP=9.00D-05 DE=-6.28D-06 OVMax= 1.24D-04

 Cycle   7  Pass 1  IDiag  1:
 E= -700.255102311173     Delta-E=       -0.000000313465 Rises=F Damp=F
 DIIS: error= 1.01D-05 at cycle   7 NSaved=   7.
 NSaved= 7 IEnMin= 7 EnMin= -700.255102311173     IErMin= 7 ErrMin= 1.01D-05
 ErrMax= 1.01D-05  0.00D+00 EMaxC= 1.00D-01 BMatC= 1.89D-08 BMatP= 4.48D-07
 IDIUse=1 WtCom= 1.00D+00 WtEn= 0.00D+00
 Coeff-Com:  0.174D-03-0.409D-02-0.266D-02 0.657D-02 0.395D-01 0.219D+00
 Coeff-Com:  0.742D+00
 Coeff:      0.174D-03-0.409D-02-0.266D-02 0.657D-02 0.395D-01 0.219D+00
 Coeff:      0.742D+00
 Gap=     0.310 Goal=   None    Shift=    0.000
 RMSDP=1.61D-06 MaxDP=3.97D-05 DE=-3.13D-07 OVMax= 3.02D-05

 Cycle   8  Pass 1  IDiag  1:
 E= -700.255102326766     Delta-E=       -0.000000015593 Rises=F Damp=F
 DIIS: error= 7.50D-07 at cycle   8 NSaved=   8.
 NSaved= 8 IEnMin= 8 EnMin= -700.255102326766     IErMin= 8 ErrMin= 7.50D-07
 ErrMax= 7.50D-07  0.00D+00 EMaxC= 1.00D-01 BMatC= 1.07D-10 BMatP= 1.89D-08
 IDIUse=1 WtCom= 1.00D+00 WtEn= 0.00D+00
 Coeff-Com:  0.564D-04-0.890D-03-0.549D-03-0.562D-03 0.347D-02 0.338D-01
 Coeff-Com:  0.143D+00 0.822D+00
 Coeff:      0.564D-04-0.890D-03-0.549D-03-0.562D-03 0.347D-02 0.338D-01
 Coeff:      0.143D+00 0.822D+00
 Gap=     0.310 Goal=   None    Shift=    0.000
 RMSDP=1.45D-07 MaxDP=1.95D-06 DE=-1.56D-08 OVMax= 2.90D-06

 Cycle   9  Pass 1  IDiag  1:
 E= -700.255102326899     Delta-E=       -0.000000000133 Rises=F Damp=F
 DIIS: error= 1.38D-07 at cycle   9 NSaved=   9.
 NSaved= 9 IEnMin= 9 EnMin= -700.255102326899     IErMin= 9 ErrMin= 1.38D-07
 ErrMax= 1.38D-07  0.00D+00 EMaxC= 1.00D-01 BMatC= 3.06D-12 BMatP= 1.07D-10
 IDIUse=1 WtCom= 1.00D+00 WtEn= 0.00D+00
 Coeff-Com: -0.229D-06 0.611D-04 0.394D-04-0.327D-03-0.119D-02-0.457D-02
 Coeff-Com: -0.124D-01 0.109D+00 0.910D+00
 Coeff:     -0.229D-06 0.611D-04 0.394D-04-0.327D-03-0.119D-02-0.457D-02
 Coeff:     -0.124D-01 0.109D+00 0.910D+00
 Gap=     0.310 Goal=   None    Shift=    0.000
 RMSDP=3.91D-08 MaxDP=7.92D-07 DE=-1.33D-10 OVMax= 8.70D-07

 Cycle  10  Pass 1  IDiag  1:
 E= -700.255102326895     Delta-E=        0.000000000004 Rises=F Damp=F
 DIIS: error= 1.11D-08 at cycle  10 NSaved=  10.
 NSaved=10 IEnMin= 9 EnMin= -700.255102326899     IErMin=10 ErrMin= 1.11D-08
 ErrMax= 1.11D-08  0.00D+00 EMaxC= 1.00D-01 BMatC= 3.88D-14 BMatP= 3.06D-12
 IDIUse=1 WtCom= 1.00D+00 WtEn= 0.00D+00
 Coeff-Com: -0.704D-06 0.180D-04 0.115D-04-0.454D-04-0.205D-03-0.107D-02
 Coeff-Com: -0.357D-02 0.179D-03 0.112D+00 0.893D+00
 Coeff:     -0.704D-06 0.180D-04 0.115D-04-0.454D-04-0.205D-03-0.107D-02
 Coeff:     -0.357D-02 0.179D-03 0.112D+00 0.893D+00
 Gap=     0.310 Goal=   None    Shift=    0.000
 RMSDP=3.53D-09 MaxDP=6.32D-08 DE= 4.32D-12 OVMax= 5.75D-08

 Error on total polarization charges =  0.02899
 SCF Done:  E(RB3LYP) =  -700.255102327     A.U. after   10 cycles
            NFock= 10  Conv=0.35D-08     -V/T= 2.0065
 KE= 6.957130420556D+02 PE=-2.217124942358D+03 EE= 5.401382742119D+02
 SMD-CDS (non-electrostatic) energy       (kcal/mol) =       1.26
 (included in total energy above)
 Leave Link  502 at Tue Sep 17 13:39:03 2024, MaxMem=   268435456 cpu:        22.4
 (Enter /g100_work/pMI24_ChiCa/g09d1/g09d01/d01/build-node-6-2-59348/src/main/l701.exe)
 Compute integral first derivatives.
 ... and contract with generalized density number  0.
 D1PCM: PCM CHGder 1st derivatives, ID1Alg=3 FixD1E=F DoIter=F DoCFld=F I1PDM=0.
 GePol: Maximum number of non-zero 1st derivatives   =     404
 Leave Link  701 at Tue Sep 17 13:39:03 2024, MaxMem=   268435456 cpu:         4.4
 (Enter /g100_work/pMI24_ChiCa/g09d1/g09d01/d01/build-node-6-2-59348/src/main/l702.exe)
 L702 exits ... SP integral derivatives will be done elsewhere.
 Leave Link  702 at Tue Sep 17 13:39:03 2024, MaxMem=   268435456 cpu:         0.1
 (Enter /g100_work/pMI24_ChiCa/g09d1/g09d01/d01/build-node-6-2-59348/src/main/l703.exe)
 Compute integral first derivatives, UseDBF=F ICtDFT=           0.
 Integral derivatives from FoFJK, PRISM(SPDF).
 Calling FoFJK, ICntrl=      2127 FMM=F ISym2X=1 I1Cent= 0 IOpClX= 0 NMat=1 NMatS=1 NMatT=0.
 FoFJK:  IHMeth= 1 ICntrl=    2127 DoSepK=F KAlg= 0 I1Cent=   0 FoldK=F
 IRaf=         0 NMat=   1 IRICut=       1 DoRegI=T DoRafI=F ISym2E= 1.
 FoFCou: FMM=F IPFlag=           0 FMFlag=      100000 FMFlg1=         800
         NFxFlg=           0 DoJE=F BraDBF=F KetDBF=F FulRan=T
         wScrn=  0.000000 ICntrl=    2127 IOpCl=  0 I1Cent=           0 NGrid=           0
         NMat0=    1 NMatS0=      1 NMatT0=    0 NMatD0=    1 NMtDS0=    0 NMtDT0=    0
 Petite list used in FoFCou.
 Leave Link  703 at Tue Sep 17 13:39:03 2024, MaxMem=   268435456 cpu:         5.4
 (Enter /g100_work/pMI24_ChiCa/g09d1/g09d01/d01/build-node-6-2-59348/src/main/l716.exe)
 Dipole        =-8.88178420D-16 0.00000000D+00-2.38517721D+00
 ***** Axes restored to original set *****
 -------------------------------------------------------------------
 Center     Atomic                   Forces (Hartrees/Bohr)
 Number     Number              X              Y              Z
 -------------------------------------------------------------------
      1       16          -0.012352219   -0.000000000   -0.008734338
      2        8          -0.000936481    0.002882927   -0.010443053
      3        8          -0.010157965   -0.002882927    0.002598095
      4        8           0.012407214    0.021820276    0.006211847
      5        8           0.009992323   -0.021820276    0.009627018
      6        1          -0.000498294   -0.001750569    0.001815342
      7        1           0.001545423    0.001750569   -0.001074910
 -------------------------------------------------------------------
 Cartesian Forces:  Max     0.021820276 RMS     0.009298936
 Leave Link  716 at Tue Sep 17 13:39:03 2024, MaxMem=   268435456 cpu:         0.1
 (Enter /g100_work/pMI24_ChiCa/g09d1/g09d01/d01/build-node-6-2-59348/src/main/l103.exe)

 GradGradGradGradGradGradGradGradGradGradGradGradGradGradGradGradGradGrad
 Berny optimization.
 Using GEDIIS/GDIIS optimizer.
 FormGI is forming the generalized inverse of G from B-inverse, IUseBI=4.
 Internal  Forces:  Max     0.025708202 RMS     0.008835295
 Search for a local minimum.
 Step number   2 out of a maximum of   30
 All quantities printed in internal units (Hartrees-Bohrs-Radians)
 RMS Force = .88353D-02 SwitMx=.10000D-02 MixMth= 1
 Mixed Optimization -- RFO/linear search
 Update second derivatives using D2CorX and points    1    2
 DE= -1.95D-02 DEPred=-1.85D-02 R= 1.06D+00
 TightC=F SS=  1.41D+00  RLast= 3.63D-01 DXNew= 5.0454D-01 1.0894D+00
 Trust test= 1.06D+00 RLast= 3.63D-01 DXMaxT set to 5.05D-01
 The second derivative matrix:
                          R1        R2        R3        R4        R5
           R1           0.40148
           R2          -0.01021   0.40148
           R3          -0.02661  -0.02661   0.68122
           R4          -0.02661  -0.02661  -0.05336   0.68122
           R5           0.00615   0.00615   0.02518   0.02518   0.57836
           R6           0.00615   0.00615   0.02518   0.02518   0.00154
           A1          -0.00949  -0.00949  -0.02741  -0.02741   0.00417
           A2          -0.00103  -0.00103  -0.00018  -0.00018   0.00205
           A3          -0.00820  -0.00820  -0.01681  -0.01681   0.00754
           A4          -0.00820  -0.00820  -0.01681  -0.01681   0.00754
           A5          -0.00103  -0.00103  -0.00018  -0.00018   0.00205
           A6           0.02251   0.02251   0.05239   0.05239  -0.01714
           A7           0.00179   0.00179   0.00278   0.00278  -0.00215
           A8           0.00179   0.00179   0.00278   0.00278  -0.00215
           D1          -0.00174  -0.00174  -0.00165  -0.00165   0.00271
           D2           0.01282   0.01282   0.01154   0.01154  -0.02025
           D3          -0.01250  -0.01250  -0.01155  -0.01155   0.01959
           D4          -0.00174  -0.00174  -0.00165  -0.00165   0.00271
           D5          -0.01250  -0.01250  -0.01155  -0.01155   0.01959
           D6           0.01282   0.01282   0.01154   0.01154  -0.02025
                          R6        A1        A2        A3        A4
           R6           0.57836
           A1           0.00417   0.24164
           A2           0.00205  -0.00138   0.25029
           A3           0.00754  -0.00838  -0.00011   0.24472
           A4           0.00754  -0.00838  -0.00011  -0.00528   0.24472
           A5           0.00205  -0.00138   0.00029  -0.00011  -0.00011
           A6          -0.01714   0.02196   0.00129   0.01629   0.01629
           A7          -0.00215   0.00198  -0.00011   0.00090   0.00090
           A8          -0.00215   0.00198  -0.00011   0.00090   0.00090
           D1           0.00271  -0.00211   0.00028  -0.00057  -0.00057
           D2          -0.02025   0.01559  -0.00212   0.00406   0.00406
           D3           0.01959  -0.01516   0.00203  -0.00405  -0.00405
           D4           0.00271  -0.00211   0.00028  -0.00057  -0.00057
           D5           0.01959  -0.01516   0.00203  -0.00405  -0.00405
           D6          -0.02025   0.01559  -0.00212   0.00406   0.00406
                          A5        A6        A7        A8        D1
           A5           0.25029
           A6           0.00129   0.20284
           A7          -0.00011  -0.00320   0.15991
           A8          -0.00011  -0.00320  -0.00009   0.15991
           D1           0.00028   0.00271  -0.00004  -0.00004   0.01848
           D2          -0.00212  -0.01969   0.00033   0.00033  -0.00177
           D3           0.00203   0.01932  -0.00029  -0.00029   0.00168
           D4           0.00028   0.00271  -0.00004  -0.00004   0.00023
           D5           0.00203   0.01932  -0.00029  -0.00029   0.00168
           D6          -0.00212  -0.01969   0.00033   0.00033  -0.00177
                          D2        D3        D4        D5        D6
           D2           0.03208
           D3          -0.01310   0.03065
           D4          -0.00177   0.00168   0.01848
           D5          -0.01310   0.01240   0.00168   0.03065
           D6           0.01383  -0.01310  -0.00177  -0.01310   0.03208
 ITU=  1  0
 Use linear search instead of GDIIS.
     Eigenvalues ---    0.01821   0.01825   0.14963   0.15807   0.16000
     Eigenvalues ---    0.16909   0.17843   0.21044   0.25395   0.37934
     Eigenvalues ---    0.41169   0.55727   0.57681   0.67009   0.73458
 RFO step:  Lambda=-2.71307653D-03 EMin= 1.82137119D-02
 Quartic linear search produced a step of  0.15870.
 Iteration  1 RMS(Cart)=  0.03523078 RMS(Int)=  0.00076907
 Iteration  2 RMS(Cart)=  0.00046856 RMS(Int)=  0.00044941
 Iteration  3 RMS(Cart)=  0.00000025 RMS(Int)=  0.00044941
 ITry= 1 IFail=0 DXMaxC= 7.64D-02 DCOld= 1.00D+10 DXMaxT= 5.05D-01 DXLimC= 3.00D+00 Rises=F
 ClnCor:  largest displacement from symmetrization is 1.06D-09 for atom     5.
 Variable       Old X    -DE/DX   Delta X   Delta X   Delta X     New X
                                 (Linear)    (Quad)   (Total)
    R1        3.07004  -0.00865  -0.01062  -0.01826  -0.02888   3.04116
    R2        3.07004  -0.00865  -0.01062  -0.01826  -0.02888   3.04116
    R3        2.79238  -0.02571  -0.00970  -0.03565  -0.04535   2.74703
    R4        2.79238  -0.02571  -0.00970  -0.03565  -0.04535   2.74703
    R5        1.85073   0.00174   0.00881  -0.00110   0.00770   1.85844
    R6        1.85073   0.00174   0.00881  -0.00110   0.00770   1.85844
    A1        1.79013   0.00390  -0.01912   0.03247   0.01251   1.80264
    A2        1.92558   0.00198   0.00091   0.01145   0.01151   1.93708
    A3        1.84820  -0.00434  -0.00918  -0.01472  -0.02454   1.82366
    A4        1.84820  -0.00434  -0.00918  -0.01472  -0.02454   1.82366
    A5        1.92558   0.00198   0.00091   0.01145   0.01151   1.93708
    A6        2.10220   0.00149   0.03186  -0.01686   0.01492   2.11712
    A7        1.92100   0.00228   0.00165   0.01500   0.01665   1.93765
    A8        1.92100   0.00228   0.00165   0.01500   0.01665   1.93765
    D1       -1.02934   0.00065   0.00149  -0.03624  -0.03445  -1.06378
    D2        0.93319  -0.00158  -0.01944  -0.03246  -0.05160   0.88159
    D3       -3.04854  -0.00152   0.01477  -0.05701  -0.04285  -3.09139
    D4       -1.02934   0.00065   0.00149  -0.03624  -0.03445  -1.06378
    D5       -3.04854  -0.00152   0.01477  -0.05701  -0.04285  -3.09139
    D6        0.93319  -0.00158  -0.01944  -0.03246  -0.05160   0.88159
         Item               Value     Threshold  Converged?
 Maximum Force            0.025708     0.000450     NO 
 RMS     Force            0.008835     0.000300     NO 
 Maximum Displacement     0.076428     0.001800     NO 
 RMS     Displacement     0.035300     0.001200     NO 
 Predicted change in Energy=-1.825317D-03
 Lowest energy point so far.  Saving SCF results.
 GradGradGradGradGradGradGradGradGradGradGradGradGradGradGradGradGradGrad

 Leave Link  103 at Tue Sep 17 13:39:04 2024, MaxMem=   268435456 cpu:         1.2
 (Enter /g100_work/pMI24_ChiCa/g09d1/g09d01/d01/build-node-6-2-59348/src/main/l202.exe)
                          Input orientation:                          
 ---------------------------------------------------------------------
 Center     Atomic      Atomic             Coordinates (Angstroms)
 Number     Number       Type             X           Y           Z
 ---------------------------------------------------------------------
      1         16           0       -0.060695    0.000000   -0.042918
      2          8           0        0.026728    0.049710    1.563249
      3          8           0        1.482755   -0.049710   -0.495884
      4          8           0       -0.613425   -1.266090   -0.495299
      5          8           0       -0.671447    1.266090   -0.413243
      6          1           0        0.472618   -0.752186    1.917231
      7          1           0        1.965122    0.752186   -0.193489
 ---------------------------------------------------------------------
                    Distance matrix (angstroms):
                    1          2          3          4          5
     1  S    0.000000
     2  O    1.609313   0.000000
     3  O    1.609313   2.523872   0.000000
     4  O    1.453666   2.525618   2.423541   0.000000
     5  O    1.453666   2.423541   2.525618   2.534174   0.000000
     6  H    2.166192   0.983442   2.708684   2.695159   3.288378
     7  H    2.166192   2.708684   0.983442   3.288378   2.695159
                    6          7
     6  H    0.000000
     7  H    2.990959   0.000000
 Stoichiometry    H2O4S
 Framework group  C2[C2(S),X(H2O4)]
 Deg. of freedom     8
 Full point group                 C2      NOp   2
 RotChk:  IX=0 Diff= 9.17D-03
 Largest Abelian subgroup         C2      NOp   2
 Largest concise Abelian subgroup C2      NOp   2
                         Standard orientation:                         
 ---------------------------------------------------------------------
 Center     Atomic      Atomic             Coordinates (Angstroms)
 Number     Number       Type             X           Y           Z
 ---------------------------------------------------------------------
      1         16           0        0.000000    0.000000    0.154275
      2          8           0       -0.000000    1.261936   -0.844427
      3          8           0       -0.000000   -1.261936   -0.844427
      4          8           0        1.263128   -0.100083    0.866760
      5          8           0       -1.263128    0.100083    0.866760
      6          1           0        0.802518    1.261913   -1.412865
      7          1           0       -0.802518   -1.261913   -1.412865
 ---------------------------------------------------------------------
 Rotational constants (GHZ):      4.9216889      4.7315206      4.7133226
 Leave Link  202 at Tue Sep 17 13:39:04 2024, MaxMem=   268435456 cpu:         0.1
 (Enter /g100_work/pMI24_ChiCa/g09d1/g09d01/d01/build-node-6-2-59348/src/main/l301.exe)
 Standard basis: 6-31+G(d,p) (6D, 7F)
 Ernie: Thresh=  0.10000D-02 Tol=  0.10000D-05 Strict=F.
 There are    56 symmetry adapted cartesian basis functions of A   symmetry.
 There are    53 symmetry adapted cartesian basis functions of B   symmetry.
 There are    56 symmetry adapted basis functions of A   symmetry.
 There are    53 symmetry adapted basis functions of B   symmetry.
   109 basis functions,   198 primitive gaussians,   109 cartesian basis functions
    25 alpha electrons       25 beta electrons
       nuclear repulsion energy       284.3663631508 Hartrees.
 IExCor=  402 DFT=T Ex+Corr=B3LYP ExCW=0 ScaHFX=  0.200000
 ScaDFX=  0.800000  0.720000  1.000000  0.810000 ScalE2=  1.000000  1.000000
 IRadAn=      0 IRanWt=     -1 IRanGd=            0 ICorTp=0 IEmpDi=  4
 NAtoms=    7 NActive=    7 NUniq=    4 SFac= 3.06D+00 NAtFMM=   60 NAOKFM=F Big=F
 Integral buffers will be    131072 words long.
 Raffenetti 2 integral format.
 Two-electron integral symmetry is turned on.
 ------------------------------------------------------------------------------
 Polarizable Continuum Model (PCM)
 =================================
 Model                : PCM (using non-symmetric T matrix).
 Atomic radii         : SMD-Coulomb.
 Polarization charges : Total charges.
 Charge compensation  : None.
 Solution method      : On-the-fly selection.
 Cavity type          : VdW (van der Waals Surface) (Alpha=1.000).
 Cavity algorithm     : GePol (No added spheres)
                        Default sphere list used, NSphG=    7.
                        Lebedev-Laikov grids with approx.  5.0 points / Ang**2.
                        Smoothing algorithm: Karplus/York (Gamma=1.0000).
                        Polarization charges: spherical gaussians, with
                                              point-specific exponents (IZeta= 3).
                        Self-potential: point-specific (ISelfS= 7).
                        Self-field    : sphere-specific E.n sum rule (ISelfD= 2).
 1st derivatives      : Analytical E(r).r(x)/FMM algorithm (CHGder, D1EAlg=3).
                        Cavity 1st derivative terms included.
 Solvent              : Water, Eps=  78.355300 Eps(inf)=   1.777849
 ------------------------------------------------------------------------------
 Spheres list:
 ISph  on   Nord     Re0    Alpha      Xe            Ye            Ze
    1   S      1    2.4900  1.000      0.000000      0.000000      0.154275
    2   O      2    1.5200  1.000     -0.000000      1.261936     -0.844427
    3   O      3    1.5200  1.000     -0.000000     -1.261936     -0.844427
    4   O      4    1.5200  1.000      1.263128     -0.100083      0.866760
    5   O      5    1.5200  1.000     -1.263128      0.100083      0.866760
    6   H      6    1.2000  1.000      0.802518      1.261913     -1.412865
    7   H      7    1.2000  1.000     -0.802518     -1.261913     -1.412865
 ------------------------------------------------------------------------------
 GePol: Number of generator spheres                  =       7
 GePol: Total number of spheres                      =       7
 GePol: Number of exposed spheres                    =       7 (100.00%)
 GePol: Number of points                             =     624
 GePol: Average weight of points                     =       0.15
 GePol: Minimum weight of points                     =   0.29D-06
 GePol: Maximum weight of points                     =    0.21991
 GePol: Number of points with low weight             =      20
 GePol: Fraction of low-weight points (<1% of avg)   =       3.21%
 GePol: Cavity surface area                          =     92.677 Ang**2
 GePol: Cavity volume                                =     77.314 Ang**3
 ------------------------------------------------------------------------------
 Atomic radii for non-electrostatic terms: SMD-CDS.
 ------------------------------------------------------------------------------
 PCM non-electrostatic energy =         0.0020378068 Hartrees.
 Nuclear repulsion after PCM non-electrostatic terms =      284.3684009576 Hartrees.
 Leave Link  301 at Tue Sep 17 13:39:04 2024, MaxMem=   268435456 cpu:         0.2
 (Enter /g100_work/pMI24_ChiCa/g09d1/g09d01/d01/build-node-6-2-59348/src/main/l302.exe)
 NPDir=0 NMtPBC=     1 NCelOv=     1 NCel=       1 NClECP=     1 NCelD=      1
         NCelK=      1 NCelE2=     1 NClLst=     1 CellRange=     0.0.
 One-electron integrals computed using PRISM.
 One-electron integral symmetry used in STVInt
 NBasis=   109 RedAO= T EigKep=  1.94D-03  NBF=    56    53
 NBsUse=   109 1.00D-06 EigRej= -1.00D+00 NBFU=    56    53
 Precomputing XC quadrature grid using
 IXCGrd= 4 IRadAn=           0 IRanWt=          -1 IRanGd=           0 AccXCQ= 0.00D+00.
 Generated NRdTot=       0 NPtTot=           0 NUsed=           0 NTot=          32
 NSgBfM=   109   109   109   109   109 MxSgAt=     7 MxSgA2=     7.
 Leave Link  302 at Tue Sep 17 13:39:04 2024, MaxMem=   268435456 cpu:         1.4
 (Enter /g100_work/pMI24_ChiCa/g09d1/g09d01/d01/build-node-6-2-59348/src/main/l303.exe)
 DipDrv:  MaxL=1.
 Leave Link  303 at Tue Sep 17 13:39:04 2024, MaxMem=   268435456 cpu:         0.2
 (Enter /g100_work/pMI24_ChiCa/g09d1/g09d01/d01/build-node-6-2-59348/src/main/l401.exe)
 Initial guess from the checkpoint file:  "/g100_scratch/userexternal/ecabiati/g16_14416734/Gau-20322.chk"
 B after Tr=     0.000000    0.000000    0.000000
         Rot=    0.999984   -0.000000    0.000000    0.005658 Ang=   0.65 deg.
 Guess basis will be translated and rotated to current coordinates.
 JPrj=2 DoOrth=T DoCkMO=T.
 Initial guess orbital symmetries:
       Occupied  (A) (B) (A) (B) (A) (A) (B) (A) (B) (A) (B) (A)
                 (B) (A) (B) (A) (B) (A) (B) (A) (B) (A) (B) (A)
                 (B)
       Virtual   (A) (A) (A) (A) (A) (A) (A) (A) (A) (A) (A) (A)
                 (A) (A) (A) (A) (A) (A) (A) (A) (A) (A) (A) (A)
                 (A) (A) (A) (A) (A) (A) (A) (A) (A) (A) (A) (A)
                 (A) (A) (A) (A) (A) (A) (A) (B) (B) (B) (B) (B)
                 (B) (B) (B) (B) (B) (B) (B) (B) (B) (B) (B) (B)
                 (B) (B) (B) (B) (B) (B) (B) (B) (B) (B) (B) (B)
                 (B) (B) (B) (B) (B) (B) (B) (B) (B) (B) (B) (B)
 The electronic state of the initial guess is 1-A.
 Generating alternative initial guess.
[...]
 Leave Link  716 at Tue Sep 17 13:39:18 2024, MaxMem=   268435456 cpu:         0.1
 (Enter /g100_work/pMI24_ChiCa/g09d1/g09d01/d01/build-node-6-2-59348/src/main/l103.exe)

 GradGradGradGradGradGradGradGradGradGradGradGradGradGradGradGradGradGrad
 Berny optimization.
 Using GEDIIS/GDIIS optimizer.
 FormGI is forming the generalized inverse of G from B-inverse, IUseBI=4.
 Internal  Forces:  Max     0.000027906 RMS     0.000013675
 Search for a local minimum.
 Step number   8 out of a maximum of   30
 All quantities printed in internal units (Hartrees-Bohrs-Radians)
 RMS Force = .13675D-04 SwitMx=.10000D-02 MixMth= 2
 Mixed Optimization -- En-DIIS/RFO-DIIS
 Swapping is turned off.
 Update second derivatives using D2CorX and points    2    3    4    5    6
                                                      7    8
 DE= -2.96D-07 DEPred=-1.57D-07 R= 1.89D+00
 Trust test= 1.89D+00 RLast= 5.42D-03 DXMaxT set to 8.49D-01
 The second derivative matrix:
                          R1        R2        R3        R4        R5
           R1           0.38547
           R2          -0.02622   0.38547
           R3          -0.01572  -0.01572   0.68383
           R4          -0.01572  -0.01572  -0.05075   0.68383
           R5          -0.02037  -0.02037   0.02212   0.02212   0.57530
           R6          -0.02037  -0.02037   0.02212   0.02212  -0.00151
           A1           0.00822   0.00822  -0.00549  -0.00549   0.02322
           A2          -0.00050  -0.00050   0.00556   0.00556   0.00318
           A3           0.00108   0.00108  -0.00884  -0.00884   0.00213
           A4           0.00108   0.00108  -0.00884  -0.00884   0.00213
           A5          -0.00050  -0.00050   0.00556   0.00556   0.00318
           A6          -0.00836  -0.00836   0.01213   0.01213  -0.02520
           A7           0.03503   0.03503  -0.00071  -0.00071   0.01141
           A8           0.03503   0.03503  -0.00071  -0.00071   0.01141
           D1          -0.00881  -0.00881  -0.01026  -0.01026  -0.00088
           D2           0.01856   0.01856  -0.00560  -0.00560  -0.01782
           D3          -0.01073  -0.01073   0.01573   0.01573   0.01533
           D4          -0.00881  -0.00881  -0.01026  -0.01026  -0.00088
           D5          -0.01073  -0.01073   0.01573   0.01573   0.01533
           D6           0.01856   0.01856  -0.00560  -0.00560  -0.01782
                          R6        A1        A2        A3        A4
           R6           0.57530
           A1           0.02322   0.24457
           A2           0.00318  -0.00839   0.24634
           A3           0.00213  -0.01103  -0.00018   0.25089
           A4           0.00213  -0.01103  -0.00018   0.00089   0.25089
           A5           0.00318  -0.00839  -0.00366  -0.00018  -0.00018
           A6          -0.02520   0.03652   0.01359   0.00808   0.00808
           A7           0.01141  -0.00032  -0.00749   0.00600   0.00600
           A8           0.01141  -0.00032  -0.00749   0.00600   0.00600
           D1          -0.00088  -0.00346   0.00278  -0.00332  -0.00332
           D2          -0.01782   0.02549  -0.00435   0.00382   0.00382
           D3           0.01533  -0.02044  -0.00344   0.00097   0.00097
           D4          -0.00088  -0.00346   0.00278  -0.00332  -0.00332
           D5           0.01533  -0.02044  -0.00344   0.00097   0.00097
           D6          -0.01782   0.02549  -0.00435   0.00382   0.00382
                          A5        A6        A7        A8        D1
           A5           0.24634
           A6           0.01359   0.18394
           A7          -0.00749   0.00375   0.16754
           A8          -0.00749   0.00375   0.00754   0.16754
           D1           0.00278   0.00388  -0.00521  -0.00521   0.01742
           D2          -0.00435  -0.02275   0.00433   0.00433  -0.00486
           D3          -0.00344   0.02390   0.00048   0.00048  -0.00145
           D4           0.00278   0.00388  -0.00521  -0.00521  -0.00083
           D5          -0.00344   0.02390   0.00048   0.00048  -0.00145
           D6          -0.00435  -0.02275   0.00433   0.00433  -0.00486
                          D2        D3        D4        D5        D6
           D2           0.03102
           D3          -0.01518   0.02857
           D4          -0.00486  -0.00145   0.01742
           D5          -0.01518   0.01031  -0.00145   0.02857
           D6           0.01276  -0.01518  -0.00486  -0.01518   0.03102
 ITU=  0  1  1  1  1  1  1  0
     Eigenvalues ---    0.00413   0.01825   0.13855   0.14852   0.16000
     Eigenvalues ---    0.17055   0.17581   0.22575   0.26972   0.38415
     Eigenvalues ---    0.41169   0.55415   0.57681   0.66656   0.73458
 En-DIIS/RFO-DIIS IScMMF=        0 using points:     8    7    6    5    4
 RFO step:  Lambda= 0.00000000D+00.
 NNeg= 0 NP= 5 Switch=  2.50D-03 Rises=F DC=  1.06D-04 SmlDif=  1.00D-05
 RMS Error=  0.2162476248D-04 NUsed= 5 EDIIS=F
 DidBck=F Rises=F RFO-DIIS coefs:    1.41289   -0.51436    0.11010   -0.01184    0.00320
 Iteration  1 RMS(Cart)=  0.00005788 RMS(Int)=  0.00000001
 Iteration  2 RMS(Cart)=  0.00000000 RMS(Int)=  0.00000001
 ITry= 1 IFail=0 DXMaxC= 1.08D-04 DCOld= 1.00D+10 DXMaxT= 8.49D-01 DXLimC= 3.00D+00 Rises=F
 ClnCor:  largest displacement from symmetrization is 8.44D-13 for atom     3.
 Variable       Old X    -DE/DX   Delta X   Delta X   Delta X     New X
                                 (Linear)    (Quad)   (Total)
    R1        3.03702   0.00003   0.00008   0.00002   0.00010   3.03712
    R2        3.03702   0.00003   0.00008   0.00002   0.00010   3.03712
    R3        2.74919  -0.00003  -0.00005   0.00001  -0.00005   2.74914
    R4        2.74919  -0.00003  -0.00005   0.00001  -0.00005   2.74914
    R5        1.85236  -0.00001  -0.00000  -0.00002  -0.00002   1.85234
    R6        1.85236  -0.00001  -0.00000  -0.00002  -0.00002   1.85234
    A1        1.80667  -0.00002  -0.00007  -0.00001  -0.00009   1.80658
    A2        1.92857   0.00001   0.00003  -0.00001   0.00002   1.92859
    A3        1.82873   0.00000   0.00002  -0.00000   0.00002   1.82875
    A4        1.82873   0.00000   0.00002  -0.00000   0.00002   1.82875
    A5        1.92857   0.00001   0.00003  -0.00001   0.00002   1.92859
    A6        2.11991  -0.00001  -0.00004   0.00003  -0.00002   2.11989
    A7        1.94466  -0.00000  -0.00004   0.00000  -0.00004   1.94462
    A8        1.94466  -0.00000  -0.00004   0.00000  -0.00004   1.94462
    D1       -1.20866  -0.00000  -0.00014   0.00001  -0.00013  -1.20879
    D2        0.74107  -0.00000  -0.00014  -0.00000  -0.00014   0.74093
    D3        3.05270  -0.00000  -0.00016   0.00003  -0.00013   3.05257
    D4       -1.20866  -0.00000  -0.00014   0.00001  -0.00013  -1.20879
    D5        3.05270  -0.00000  -0.00016   0.00003  -0.00013   3.05257
    D6        0.74107  -0.00000  -0.00014  -0.00000  -0.00014   0.74093
         Item               Value     Threshold  Converged?
 Maximum Force            0.000028     0.000450     YES
 RMS     Force            0.000014     0.000300     YES
 Maximum Displacement     0.000108     0.001800     YES
 RMS     Displacement     0.000058     0.001200     YES
 Predicted change in Energy=-4.291812D-09
 Optimization completed.
    -- Stationary point found.
                           ----------------------------
                           !   Optimized Parameters   !
                           ! (Angstroms and Degrees)  !
 --------------------------                            --------------------------
 ! Name  Definition              Value          Derivative Info.                !
 --------------------------------------------------------------------------------
 ! R1    R(1,2)                  1.6071         -DE/DX =    0.0                 !
 ! R2    R(1,3)                  1.6071         -DE/DX =    0.0                 !
 ! R3    R(1,4)                  1.4548         -DE/DX =    0.0                 !
 ! R4    R(1,5)                  1.4548         -DE/DX =    0.0                 !
 ! R5    R(2,6)                  0.9802         -DE/DX =    0.0                 !
 ! R6    R(3,7)                  0.9802         -DE/DX =    0.0                 !
 ! A1    A(2,1,3)              103.5145         -DE/DX =    0.0                 !
 ! A2    A(2,1,4)              110.4987         -DE/DX =    0.0                 !
 ! A3    A(2,1,5)              104.7784         -DE/DX =    0.0                 !
 ! A4    A(3,1,4)              104.7784         -DE/DX =    0.0                 !
 ! A5    A(3,1,5)              110.4987         -DE/DX =    0.0                 !
 ! A6    A(4,1,5)              121.4619         -DE/DX =    0.0                 !
 ! A7    A(1,2,6)              111.4211         -DE/DX =    0.0                 !
 ! A8    A(1,3,7)              111.4211         -DE/DX =    0.0                 !
 ! D1    D(3,1,2,6)            -69.2513         -DE/DX =    0.0                 !
 ! D2    D(4,1,2,6)             42.4603         -DE/DX =    0.0                 !
 ! D3    D(5,1,2,6)            174.907          -DE/DX =    0.0                 !
 ! D4    D(2,1,3,7)            -69.2513         -DE/DX =    0.0                 !
 ! D5    D(4,1,3,7)            174.907          -DE/DX =    0.0                 !
 ! D6    D(5,1,3,7)             42.4603         -DE/DX =    0.0                 !
 --------------------------------------------------------------------------------
 Lowest energy point so far.  Saving SCF results.
 GradGradGradGradGradGradGradGradGradGradGradGradGradGradGradGradGradGrad

 Largest change from initial coordinates is atom    4       0.133 Angstoms.
 Leave Link  103 at Tue Sep 17 13:39:18 2024, MaxMem=   268435456 cpu:         1.0
 (Enter /g100_work/pMI24_ChiCa/g09d1/g09d01/d01/build-node-6-2-59348/src/main/l202.exe)
                          Input orientation:                          
 ---------------------------------------------------------------------
 Center     Atomic      Atomic             Coordinates (Angstroms)
 Number     Number       Type             X           Y           Z
 ---------------------------------------------------------------------
      1         16           0       -0.037476    0.000000   -0.026499
      2          8           0        0.046512    0.045982    1.577766
      3          8           0        1.503036   -0.045982   -0.482070
      4          8           0       -0.594033   -1.268384   -0.471367
      5          8           0       -0.642420    1.268384   -0.402937
      6          1           0        0.370037   -0.803832    1.943822
      7          1           0        1.955998    0.803832   -0.299066
 ---------------------------------------------------------------------
                    Distance matrix (angstroms):
                    1          2          3          4          5
     1  S    0.000000
     2  O    1.607120   0.000000
     3  O    1.607120   2.524449   0.000000
     4  O    1.454806   2.517301   2.427360   0.000000
     5  O    1.454806   2.427360   2.517301   2.538152   0.000000
     6  H    2.166651   0.980229   2.782620   2.641662   3.290353
     7  H    2.166651   2.782620   0.980229   3.290353   2.641662
                    6          7
     6  H    0.000000
     7  H    3.182829   0.000000
 Stoichiometry    H2O4S
 Framework group  C2[C2(S),X(H2O4)]
 Deg. of freedom     8
 Full point group                 C2      NOp   2
 RotChk:  IX=0 Diff= 1.01D-13
 Largest Abelian subgroup         C2      NOp   2
 Largest concise Abelian subgroup C2      NOp   2
                         Standard orientation:                         
 ---------------------------------------------------------------------
 Center     Atomic      Atomic             Coordinates (Angstroms)
 Number     Number       Type             X           Y           Z
 ---------------------------------------------------------------------
      1         16           0        0.000000   -0.000000    0.149541
      2          8           0        0.000000    1.262225   -0.845258
      3          8           0       -0.000000   -1.262225   -0.845258
      4          8           0        1.266016   -0.088084    0.860812
      5          8           0       -1.266016    0.088084    0.860812
      6          1           0        0.853333    1.343288   -1.320757
      7          1           0       -0.853333   -1.343288   -1.320757
 ---------------------------------------------------------------------
 Rotational constants (GHZ):      4.9124970      4.7605986      4.6971479
 Leave Link  202 at Tue Sep 17 13:39:18 2024, MaxMem=   268435456 cpu:         0.1
 (Enter /g100_work/pMI24_ChiCa/g09d1/g09d01/d01/build-node-6-2-59348/src/main/l601.exe)
 Copying SCF densities to generalized density rwf, IOpCl= 0 IROHF=0.

 **********************************************************************

            Population analysis using the SCF density.

 **********************************************************************

 Orbital symmetries:
       Occupied  (A) (B) (A) (B) (A) (A) (B) (A) (B) (A) (B) (A)
                 (B) (A) (B) (A) (B) (A) (B) (A) (B) (A) (B) (A)
                 (B)
       Virtual   (A) (B) (A) (B) (A) (B) (A) (B) (A) (B) (A) (A)
                 (B) (A) (B) (A) (B) (B) (A) (A) (B) (A) (B) (B)
                 (A) (B) (B) (A) (B) (A) (A) (A) (B) (A) (B) (A)
                 (B) (B) (A) (A) (B) (A) (B) (B) (A) (A) (B) (A)
                 (B) (B) (A) (B) (A) (B) (A) (B) (A) (B) (A) (B)
                 (A) (B) (A) (B) (A) (B) (A) (B) (A) (A) (B) (A)
                 (B) (B) (A) (A) (B) (B) (A) (A) (B) (A) (B) (A)
 The electronic state is 1-A.
 Alpha  occ. eigenvalues --  -89.20497 -19.24188 -19.24188 -19.19873 -19.19873
 Alpha  occ. eigenvalues --   -8.22196  -6.18781  -6.18684  -6.18560  -1.21190
 Alpha  occ. eigenvalues --   -1.08729  -1.07256  -1.06048  -0.71095  -0.64004
 Alpha  occ. eigenvalues --   -0.55131  -0.53099  -0.49923  -0.45800  -0.42513
 Alpha  occ. eigenvalues --   -0.40236  -0.40147  -0.36344  -0.36027  -0.34444
 Alpha virt. eigenvalues --   -0.02427   0.02796   0.03701   0.04411   0.04548
 Alpha virt. eigenvalues --    0.05769   0.08500   0.09084   0.14575   0.14676
 Alpha virt. eigenvalues --    0.15802   0.16784   0.16912   0.18245   0.20685
 Alpha virt. eigenvalues --    0.20955   0.23713   0.24303   0.25333   0.26677
 Alpha virt. eigenvalues --    0.26699   0.27166   0.27985   0.30441   0.32481
 Alpha virt. eigenvalues --    0.39554   0.49634   0.53950   0.58285   0.58853
 Alpha virt. eigenvalues --    0.60897   0.70997   0.92330   0.95797   0.98215
 Alpha virt. eigenvalues --    1.03901   1.05237   1.09497   1.10388   1.14088
 Alpha virt. eigenvalues --    1.16155   1.18433   1.19635   1.21868   1.21892
 Alpha virt. eigenvalues --    1.23626   1.28016   1.30233   1.33520   1.43778
 Alpha virt. eigenvalues --    1.46849   1.49123   1.54052   1.54367   1.62054
 Alpha virt. eigenvalues --    1.69139   1.71773   1.73964   1.76343   1.76659
 Alpha virt. eigenvalues --    1.77017   1.80723   1.99681   2.05276   2.06133
 Alpha virt. eigenvalues --    2.11099   2.21300   2.28687   2.33812   2.47395
 Alpha virt. eigenvalues --    2.56943   2.57952   2.61071   2.66225   2.68393
 Alpha virt. eigenvalues --    2.81805   2.86461   3.34799   3.39834   3.92285
 Alpha virt. eigenvalues --    4.00465   4.04929   4.11504   4.21698
          Condensed to atoms (all electrons):
               1          2          3          4          5          6
     1  S   13.647036   0.028554   0.028554   0.285134   0.285134   0.034330
     2  O    0.028554   8.564959  -0.033069  -0.096928  -0.048629   0.227528
     3  O    0.028554  -0.033069   8.564959  -0.048629  -0.096928  -0.007122
     4  O    0.285134  -0.096928  -0.048629   8.660988  -0.150415  -0.005630
     5  O    0.285134  -0.048629  -0.096928  -0.150415   8.660988   0.008584
     6  H    0.034330   0.227528  -0.007122  -0.005630   0.008584   0.282224
     7  H    0.034330  -0.007122   0.227528   0.008584  -0.005630   0.000154
               7
     1  S    0.034330
     2  O   -0.007122
     3  O    0.227528
     4  O    0.008584
     5  O   -0.005630
     6  H    0.000154
     7  H    0.282224
 Mulliken charges:
               1
     1  S    1.656927
     2  O   -0.635292
     3  O   -0.635292
     4  O   -0.653104
     5  O   -0.653104
     6  H    0.459933
     7  H    0.459933
 Sum of Mulliken charges =  -0.00000
 Mulliken charges with hydrogens summed into heavy atoms:
               1
     1  S    1.656927
     2  O   -0.175359
     3  O   -0.175359
     4  O   -0.653104
     5  O   -0.653104
 Electronic spatial extent (au):  <R**2>=            376.4599
 Charge=             -0.0000 electrons
 Dipole moment (field-independent basis, Debye):
    X=             -0.0000    Y=             -0.0000    Z=             -5.4933  Tot=              5.4933
 Quadrupole moment (field-independent basis, Debye-Ang):
   XX=            -38.4236   YY=            -33.9480   ZZ=            -33.1074
   XY=              6.1909   XZ=             -0.0000   YZ=             -0.0000
 Traceless Quadrupole moment (field-independent basis, Debye-Ang):
   XX=             -3.2640   YY=              1.2117   ZZ=              2.0523
   XY=              6.1909   XZ=             -0.0000   YZ=             -0.0000
 Octapole moment (field-independent basis, Debye-Ang**2):
  XXX=             -0.0000  YYY=             -0.0000  ZZZ=            -14.6964  XYY=             -0.0000
  XXY=             -0.0000  XXZ=            -12.7082  XZZ=             -0.0000  YZZ=              0.0000
  YYZ=             -6.1969  XYZ=             -7.6322
 Hexadecapole moment (field-independent basis, Debye-Ang**3):
 XXXX=           -156.5731 YYYY=           -148.8013 ZZZZ=           -133.0882 XXXY=              7.2476
 XXXZ=             -0.0000 YYYX=             13.0021 YYYZ=              0.0000 ZZZX=             -0.0000
 ZZZY=             -0.0000 XXYY=            -43.5549 XXZZ=            -46.6089 YYZZ=            -37.6381
 XXYZ=             -0.0000 YYXZ=              0.0000 ZZXY=             12.0829
 N-N= 2.844256584833D+02 E-N=-2.224128693585D+03  KE= 6.958921647438D+02
 Symmetry A    KE= 4.697601219376D+02
 Symmetry B    KE= 2.261320428062D+02
 No NMR shielding tensors so no spin-rotation constants.
 Leave Link  601 at Tue Sep 17 13:39:18 2024, MaxMem=   268435456 cpu:         1.6
 (Enter /g100_work/pMI24_ChiCa/g09d1/g09d01/d01/build-node-6-2-59348/src/main/l9999.exe)
 B after Tr=    -0.026613   -0.000000   -0.018818
         Rot=    0.999995   -0.002606    0.000001   -0.001843 Ang=  -0.37 deg.
 Final structure in terms of initial Z-matrix:
 S
 O,1,os2
 O,1,os3,2,oso3
 O,1,os4,2,oso4,3,dih4,0
 O,1,os5,3,oso5,2,dih5,0
 H,2,ho6,1,hos6,5,dih6,0
 H,3,ho7,1,hos7,4,dih7,0
      Variables:
 os2=1.60712032
 os3=1.60712032
 oso3=103.5144855
 os4=1.45480638
 oso4=110.49873488
 dih4=111.71160715
 os5=1.45480638
 oso5=110.49873488
 dih5=111.71160715
 ho6=0.98022892
 hos6=111.42106252
 dih6=174.90700961
 ho7=0.98022892
 hos7=111.42106252
 dih7=174.90700961
 1\1\GINC-R500N001\FOpt\RB3LYP\6-31+G(d,p)\H2O4S1\ECABIATI\17-Sep-2024\
 0\\#p B3LYP/6-31+g(d,p) opt scrf=(smd,solvent=water)\\h2o4s sol\\0,1\S
 ,-0.0374758089,0.,-0.0264991542\O,0.0465121415,0.0459823634,1.57776621
 01\O,1.5030360651,-0.0459823634,-0.4820696766\O,-0.5940328925,-1.26838
 41459,-0.4713670995\O,-0.6424203579,1.2683841459,-0.4029368897\H,0.370
 0367827,-0.8038315794,1.9438219494\H,1.9559982729,0.8038315794,-0.2990
 662995\\Version=EM64L-G09RevD.01\State=1-A\HF=-700.257188\RMSD=3.583e-
 09\RMSF=4.483e-05\Dipole=1.7646392,0.,1.2477883\Quadrupole=1.4277453,-
 2.7573952,1.3296498,2.5804219,0.138728,-3.6492676\PG=C02 [C2(S1),X(H2O
 4)]\\@


  THE LARGE PRINT GIVETH,
  AND THE SMALL PRINT TAKETH AWAY.

                     -- TOM WAITS
 Job cpu time:       0 days  0 hours  4 minutes 48.4 seconds.
 File lengths (MBytes):  RWF=     15 Int=      0 D2E=      0 Chk=      2 Scr=      1
 Normal termination of Gaussian 09 at Tue Sep 17 13:39:18 2024.
