 Entering Gaussian System, Link 0=/programs/64bit/g09/g09-gfortran/bin/g09
 Input=ch4_++.com
 Output=ch4_++.log
 Initial command:
 /programs/64bit/g09/g09-gfortran/bin/l1.exe /home/ospite/Desktop/MMfP/Project6/CH4/g09/HF/Gau-4407.inp -scrdir=/home/ospite/Desktop/MMfP/Project6/CH4/g09/HF/
 Entering Link 1 = /programs/64bit/g09/g09-gfortran/bin/l1.exe PID=      4408.
  
 Copyright (c) 1988,1990,1992,1993,1995,1998,2003,2009, Gaussian, Inc.
                  All Rights Reserved.
  
 This is part of the Gaussian(R) 09 program.  It is based on
 the Gaussian(R) 03 system (copyright 2003, Gaussian, Inc.),
 the Gaussian(R) 98 system (copyright 1998, Gaussian, Inc.),
 the Gaussian(R) 94 system (copyright 1995, Gaussian, Inc.),
 the Gaussian 92(TM) system (copyright 1992, Gaussian, Inc.),
 the Gaussian 90(TM) system (copyright 1990, Gaussian, Inc.),
 the Gaussian 88(TM) system (copyright 1988, Gaussian, Inc.),
 the Gaussian 86(TM) system (copyright 1986, Carnegie Mellon
 University), and the Gaussian 82(TM) system (copyright 1983,
 Carnegie Mellon University). Gaussian is a federally registered
 trademark of Gaussian, Inc.
  
 This software contains proprietary and confidential information,
 including trade secrets, belonging to Gaussian, Inc.
  
 This software is provided under written license and may be
 used, copied, transmitted, or stored only in accord with that
 written license.
  
 The following legend is applicable only to US Government
 contracts under FAR:
  
                    RESTRICTED RIGHTS LEGEND
  
 Use, reproduction and disclosure by the US Government is
 subject to restrictions as set forth in subparagraphs (a)
 and (c) of the Commercial Computer Software - Restricted
 Rights clause in FAR 52.227-19.
  
 Gaussian, Inc.
 340 Quinnipiac St., Bldg. 40, Wallingford CT 06492
  
  
 ---------------------------------------------------------------
 Warning -- This program may not be used in any manner that
 competes with the business of Gaussian, Inc. or will provide
 assistance to any competitor of Gaussian, Inc.  The licensee
 of this program is prohibited from giving any competitor of
 Gaussian, Inc. access to this program.  By using this program,
 the user acknowledges that Gaussian, Inc. is engaged in the
 business of creating and licensing software in the field of
 computational chemistry and represents and warrants to the
 licensee that it is not a competitor of Gaussian, Inc. and that
 it will not use this program in any manner prohibited above.
 ---------------------------------------------------------------
  

 Cite this work as:
 Gaussian 09, Revision A.02,
 M. J. Frisch, G. W. Trucks, H. B. Schlegel, G. E. Scuseria, 
 M. A. Robb, J. R. Cheeseman, G. Scalmani, V. Barone, B. Mennucci, 
 G. A. Petersson, H. Nakatsuji, M. Caricato, X. Li, H. P. Hratchian, 
 A. F. Izmaylov, J. Bloino, G. Zheng, J. L. Sonnenberg, M. Hada, 
 M. Ehara, K. Toyota, R. Fukuda, J. Hasegawa, M. Ishida, T. Nakajima, 
 Y. Honda, O. Kitao, H. Nakai, T. Vreven, J. A. Montgomery, Jr., 
 J. E. Peralta, F. Ogliaro, M. Bearpark, J. J. Heyd, E. Brothers, 
 K. N. Kudin, V. N. Staroverov, R. Kobayashi, J. Normand, 
 K. Raghavachari, A. Rendell, J. C. Burant, S. S. Iyengar, J. Tomasi, 
 M. Cossi, N. Rega, J. M. Millam, M. Klene, J. E. Knox, J. B. Cross, 
 V. Bakken, C. Adamo, J. Jaramillo, R. Gomperts, R. E. Stratmann, 
 O. Yazyev, A. J. Austin, R. Cammi, C. Pomelli, J. W. Ochterski, 
 R. L. Martin, K. Morokuma, V. G. Zakrzewski, G. A. Voth, 
 P. Salvador, J. J. Dannenberg, S. Dapprich, A. D. Daniels, 
 O. Farkas, J. B. Foresman, J. V. Ortiz, J. Cioslowski, 
 and D. J. Fox, Gaussian, Inc., Wallingford CT, 2009.
 
 ******************************************
 Gaussian 09:  EM64L-G09RevA.02 11-Jun-2009
                17-Aug-2024 
 ******************************************
 %mem=100MB
 ---------------------------------------------------------------
 #p hf/6-31++G opt freq symmetry=(follow,pg=Td) pop=full gfinput
 ---------------------------------------------------------------
 1/18=20,19=15,38=1/1,3;
 2/9=110,12=2,17=6,18=5,19=2314885530818462804,40=1/2;
 3/5=1,6=6,7=1010,11=9,16=1,24=10,25=1,30=1,71=1/1,2,3;
 4//1;
 5/5=2,38=5/2;
 6/7=3,28=1/1;
 7//1,2,3,16;
 1/18=20,19=15/3(2);
 2/9=110,15=5,19=2314885530818462804/2;
 99//99;
 2/9=110,15=5,19=2314885530818462804/2;
 3/5=1,6=6,7=1010,11=9,16=1,25=1,30=1,71=1/1,2,3;
 4/5=5,16=3/1;
 5/5=2,38=5/2;
 7//1,2,3,16;
 1/18=20,19=15/3(-5);
 2/9=110,15=5,19=2314885530818462804/2;
 6/7=3,19=2,28=1/1;
 99/9=1/99;
 Leave Link    1 at Sat Aug 17 14:54:11 2024, MaxMem=   13107200 cpu:       0.1
 (Enter /programs/64bit/g09/g09-gfortran/bin/l101.exe)
 -----------------------------------------------------------
 methane with imposed symmetry and hf/6-31++G basis function
 -----------------------------------------------------------
 Symbolic Z-matrix:
 Charge =  0 Multiplicity = 1
 C1
 H2                   1    d
 H3                   1    d        2    a
 H4                   1    d        2    a        3    t        0
 H5                   1    d        2    a        3    -t       0
       Variables:
  d                     1.09                     
  a                   109.471                    
  t                   120.                       
 
     3 tetrahedral angles replaced.
 NAtoms=      5 NQM=      5 NQMF=      0 NMic=      0 NMicF=      0 NTot=      5.
                    Isotopes and Nuclear Properties:
 (Nuclear quadrupole moments (NQMom) in fm**2, nuclear magnetic moments (NMagM)
  in nuclear magnetons)

  Atom         1           2           3           4           5
 IAtWgt=          12           1           1           1           1
 AtmWgt=  12.0000000   1.0078250   1.0078250   1.0078250   1.0078250
 NucSpn=           0           1           1           1           1
 AtZEff=   0.0000000   0.0000000   0.0000000   0.0000000   0.0000000
 NQMom=    0.0000000   0.0000000   0.0000000   0.0000000   0.0000000
 NMagM=    0.0000000   2.7928460   2.7928460   2.7928460   2.7928460
 Leave Link  101 at Sat Aug 17 14:54:11 2024, MaxMem=   13107200 cpu:       0.1
 (Enter /programs/64bit/g09/g09-gfortran/bin/l103.exe)

 GradGradGradGradGradGradGradGradGradGradGradGradGradGradGradGradGradGrad
 Berny optimization.
 Initialization pass.
                           ----------------------------
                           !    Initial Parameters    !
                           ! (Angstroms and Degrees)  !
 --------------------------                            --------------------------
 ! Name  Definition              Value          Derivative Info.                !
 --------------------------------------------------------------------------------
 ! R1    R(1,2)                  1.09           estimate D2E/DX2                !
 ! R2    R(1,3)                  1.09           estimate D2E/DX2                !
 ! R3    R(1,4)                  1.09           estimate D2E/DX2                !
 ! R4    R(1,5)                  1.09           estimate D2E/DX2                !
 ! A1    A(2,1,3)              109.4712         estimate D2E/DX2                !
 ! A2    A(2,1,4)              109.4712         estimate D2E/DX2                !
 ! A3    A(2,1,5)              109.4712         estimate D2E/DX2                !
 ! A4    A(3,1,4)              109.4712         estimate D2E/DX2                !
 ! A5    A(3,1,5)              109.4712         estimate D2E/DX2                !
 ! A6    A(4,1,5)              109.4712         estimate D2E/DX2                !
 ! D1    D(2,1,4,3)           -120.0            estimate D2E/DX2                !
 ! D2    D(2,1,5,3)            120.0            estimate D2E/DX2                !
 ! D3    D(2,1,5,4)           -120.0            estimate D2E/DX2                !
 ! D4    D(3,1,5,4)            120.0            estimate D2E/DX2                !
 --------------------------------------------------------------------------------
 Trust Radius=3.00D-01 FncErr=1.00D-07 GrdErr=1.00D-07
 Number of steps in this run=  24 maximum allowed number of steps= 100.
 GradGradGradGradGradGradGradGradGradGradGradGradGradGradGradGradGradGrad

 Leave Link  103 at Sat Aug 17 14:54:11 2024, MaxMem=   13107200 cpu:       0.0
 (Enter /programs/64bit/g09/g09-gfortran/bin/l202.exe)
                          Input orientation:                          
 ---------------------------------------------------------------------
 Center     Atomic      Atomic             Coordinates (Angstroms)
 Number     Number       Type             X           Y           Z
 ---------------------------------------------------------------------
      1          6           0        0.000000    0.000000    0.000000
      2          1           0        0.000000    0.000000    1.090000
      3          1           0        1.027662    0.000000   -0.363333
      4          1           0       -0.513831   -0.889981   -0.363333
      5          1           0       -0.513831    0.889981   -0.363333
 ---------------------------------------------------------------------
                    Distance matrix (angstroms):
                    1          2          3          4          5
     1  C    0.000000
     2  H    1.090000   0.000000
     3  H    1.090000   1.779963   0.000000
     4  H    1.090000   1.779963   1.779963   0.000000
     5  H    1.090000   1.779963   1.779963   1.779963   0.000000
 Symm:  InNGrp=TD   InAxis=0.
 Stoichiometry    CH4
 Framework group  TD[O(C),4C3(H)]
 Deg. of freedom     1
 Full point group                 TD      NOp  24
 Largest Abelian subgroup         D2      NOp   4
 Largest concise Abelian subgroup D2      NOp   4
                         Standard orientation:                         
 ---------------------------------------------------------------------
 Center     Atomic      Atomic             Coordinates (Angstroms)
 Number     Number       Type             X           Y           Z
 ---------------------------------------------------------------------
      1          6           0        0.000000    0.000000    0.000000
      2          1           0        0.629312    0.629312    0.629312
      3          1           0       -0.629312   -0.629312    0.629312
      4          1           0       -0.629312    0.629312   -0.629312
      5          1           0        0.629312   -0.629312   -0.629312
 ---------------------------------------------------------------------
 Rotational constants (GHZ):    158.2742720    158.2742720    158.2742720
 Leave Link  202 at Sat Aug 17 14:54:11 2024, MaxMem=   13107200 cpu:       0.0
 (Enter /programs/64bit/g09/g09-gfortran/bin/l301.exe)
 Standard basis: 6-31++G (6D, 7F)
 Ernie: Thresh=  0.10000D-02 Tol=  0.10000D-05 Strict=F.
 AO basis set in the form of general basis input (Overlap normalization):
      1 0
 S   6 1.00       0.000000000000
      0.3047524880D+04  0.1834737132D-02
      0.4573695180D+03  0.1403732281D-01
      0.1039486850D+03  0.6884262226D-01
      0.2921015530D+02  0.2321844432D+00
      0.9286662960D+01  0.4679413484D+00
      0.3163926960D+01  0.3623119853D+00
 SP   3 1.00       0.000000000000
      0.7868272350D+01 -0.1193324198D+00  0.6899906659D-01
      0.1881288540D+01 -0.1608541517D+00  0.3164239610D+00
      0.5442492580D+00  0.1143456438D+01  0.7443082909D+00
 SP   1 1.00       0.000000000000
      0.1687144782D+00  0.1000000000D+01  0.1000000000D+01
 SP   1 1.00       0.000000000000
      0.4380000000D-01  0.1000000000D+01  0.1000000000D+01
 ****
      2 0
 S   3 1.00       0.000000000000
      0.1873113696D+02  0.3349460434D-01
      0.2825394365D+01  0.2347269535D+00
      0.6401216923D+00  0.8137573261D+00
 S   1 1.00       0.000000000000
      0.1612777588D+00  0.1000000000D+01
 S   1 1.00       0.000000000000
      0.3600000000D-01  0.1000000000D+01
 ****
      3 0
 S   3 1.00       0.000000000000
      0.1873113696D+02  0.3349460434D-01
      0.2825394365D+01  0.2347269535D+00
      0.6401216923D+00  0.8137573261D+00
 S   1 1.00       0.000000000000
      0.1612777588D+00  0.1000000000D+01
 S   1 1.00       0.000000000000
      0.3600000000D-01  0.1000000000D+01
 ****
      4 0
 S   3 1.00       0.000000000000
      0.1873113696D+02  0.3349460434D-01
      0.2825394365D+01  0.2347269535D+00
      0.6401216923D+00  0.8137573261D+00
 S   1 1.00       0.000000000000
      0.1612777588D+00  0.1000000000D+01
 S   1 1.00       0.000000000000
      0.3600000000D-01  0.1000000000D+01
 ****
      5 0
 S   3 1.00       0.000000000000
      0.1873113696D+02  0.3349460434D-01
      0.2825394365D+01  0.2347269535D+00
      0.6401216923D+00  0.8137573261D+00
 S   1 1.00       0.000000000000
      0.1612777588D+00  0.1000000000D+01
 S   1 1.00       0.000000000000
      0.3600000000D-01  0.1000000000D+01
 ****

 There are     7 symmetry adapted basis functions of A   symmetry.
 There are     6 symmetry adapted basis functions of B1  symmetry.
 There are     6 symmetry adapted basis functions of B2  symmetry.
 There are     6 symmetry adapted basis functions of B3  symmetry.
 Integral buffers will be    131072 words long.
 Raffenetti 1 integral format.
 Two-electron integral symmetry is turned on.
    25 basis functions,    46 primitive gaussians,    25 cartesian basis functions
     5 alpha electrons        5 beta electrons
       nuclear repulsion energy        13.4353891954 Hartrees.
 IExCor=    0 DFT=F Ex=HF Corr=None ExCW=0 ScaHFX=  1.000000
 ScaDFX=  1.000000  1.000000  1.000000  1.000000 ScalE2=  1.000000  1.000000
 IRadAn=      0 IRanWt=     -1 IRanGd=            0 ICorTp=0
 NAtoms=    5 NActive=    5 NUniq=    2 SFac= 3.00D+00 NAtFMM=   80 NAOKFM=F Big=F
 Leave Link  301 at Sat Aug 17 14:54:11 2024, MaxMem=   13107200 cpu:       0.1
 (Enter /programs/64bit/g09/g09-gfortran/bin/l302.exe)
 NPDir=0 NMtPBC=     1 NCelOv=     1 NCel=       1 NClECP=     1 NCelD=      1
         NCelK=      1 NCelE2=     1 NClLst=     1 CellRange=     0.0.
 One-electron integrals computed using PRISM.
 One-electron integral symmetry used in STVInt
 NBasis=    25 RedAO= T  NBF=     7     6     6     6
 NBsUse=    25 1.00D-06 NBFU=     7     6     6     6
 Leave Link  302 at Sat Aug 17 14:54:11 2024, MaxMem=   13107200 cpu:       0.1
 (Enter /programs/64bit/g09/g09-gfortran/bin/l303.exe)
 DipDrv:  MaxL=1.
 Leave Link  303 at Sat Aug 17 14:54:11 2024, MaxMem=   13107200 cpu:       0.0
 (Enter /programs/64bit/g09/g09-gfortran/bin/l401.exe)
 Harris functional with IExCor=  205 diagonalized for initial guess.
 ExpMin= 3.60D-02 ExpMax= 3.05D+03 ExpMxC= 4.57D+02 IAcc=3 IRadAn=         0 AccDes= 0.00D+00
 HarFok:  IExCor=  205 AccDes= 0.00D+00 IRadAn=         0 IDoV= 1
 ScaDFX=  1.000000  1.000000  1.000000  1.000000
 FoFCou: FMM=F IPFlag=           0 FMFlag=      100000 FMFlg1=           0
         NFxFlg=           0 DoJE=T BraDBF=F KetDBF=T FulRan=T
         Omega=  0.000000  0.000000  1.000000  0.000000  0.000000 ICntrl=     500 IOpCl=  0
         NMat0=    1 NMatS0=    1 NMatT0=    0 NMatD0=    1 NMtDS0=    0 NMtDT0=    0
         I1Cent=           4 NGrid=           0.
 Petite list used in FoFCou.
 Harris En= -40.3664561784881    
 Initial guess orbital symmetries:
       Occupied  (A1) (A1) (T2) (T2) (T2)
       Virtual   (A1) (T2) (T2) (T2) (T2) (T2) (T2) (A1) (T2) (T2)
                 (T2) (A1) (T2) (T2) (T2) (T2) (T2) (T2) (A1) (A1)
 The electronic state of the initial guess is 1-A1.
 Leave Link  401 at Sat Aug 17 14:54:11 2024, MaxMem=   13107200 cpu:       0.3
 (Enter /programs/64bit/g09/g09-gfortran/bin/l502.exe)
 Closed shell SCF:
 Requested convergence on RMS density matrix=1.00D-08 within 128 cycles.
 Requested convergence on MAX density matrix=1.00D-06.
 Requested convergence on             energy=1.00D-06.
 No special actions if energy rises.
 Using DIIS extrapolation, IDIIS=  1040.
 Integral symmetry usage will be decided dynamically.
 Keep R1 ints in memory in canonical form, NReq=873804.
 IEnd=       20815 IEndB=       20815 NGot=    13107200 MDV=    13050673
 LenX=    13050673 LenY=    13049607
 Symmetry not used in FoFDir.
 MinBra= 0 MaxBra= 1 Meth= 1.
 IRaf=       0 NMat=   1 IRICut=       1 DoRegI=T DoRafI=F ISym2E= 0 JSym2E=0.

 Cycle   1  Pass 1  IDiag  1:
 E= -40.0591234013286    
 DIIS: error= 5.81D-02 at cycle   1 NSaved=   1.
 NSaved= 1 IEnMin= 1 EnMin= -40.0591234013286     IErMin= 1 ErrMin= 5.81D-02
 ErrMax= 5.81D-02 EMaxC= 1.00D-01 BMatC= 1.17D-01 BMatP= 1.17D-01
 IDIUse=3 WtCom= 4.19D-01 WtEn= 5.81D-01
 Coeff-Com:  0.100D+01
 Coeff-En:   0.100D+01
 Coeff:      0.100D+01
 Gap=     0.524 Goal=   None    Shift=    0.000
 GapD=    0.524 DampG=2.000 DampE=0.500 DampFc=1.0000 IDamp=-1.
 RMSDP=1.37D-02 MaxDP=1.33D-01              OVMax= 1.47D-01

 Cycle   2  Pass 1  IDiag  1:
 E= -40.1610138987816     Delta-E=       -0.101890497453 Rises=F Damp=F
 DIIS: error= 2.27D-02 at cycle   2 NSaved=   2.
 NSaved= 2 IEnMin= 2 EnMin= -40.1610138987816     IErMin= 2 ErrMin= 2.27D-02
 ErrMax= 2.27D-02 EMaxC= 1.00D-01 BMatC= 1.98D-02 BMatP= 1.17D-01
 IDIUse=3 WtCom= 7.73D-01 WtEn= 2.27D-01
 Coeff-Com:  0.279D+00 0.721D+00
 Coeff-En:   0.000D+00 0.100D+01
 Coeff:      0.216D+00 0.784D+00
 Gap=     0.598 Goal=   None    Shift=    0.000
 RMSDP=4.11D-03 MaxDP=3.77D-02 DE=-1.02D-01 OVMax= 4.10D-02

 Cycle   3  Pass 1  IDiag  1:
 E= -40.1808080410607     Delta-E=       -0.019794142279 Rises=F Damp=F
 DIIS: error= 2.72D-03 at cycle   3 NSaved=   3.
 NSaved= 3 IEnMin= 3 EnMin= -40.1808080410607     IErMin= 3 ErrMin= 2.72D-03
 ErrMax= 2.72D-03 EMaxC= 1.00D-01 BMatC= 2.05D-04 BMatP= 1.98D-02
 IDIUse=3 WtCom= 9.73D-01 WtEn= 2.72D-02
 Coeff-Com: -0.253D-01 0.389D-01 0.986D+00
 Coeff-En:   0.000D+00 0.000D+00 0.100D+01
 Coeff:     -0.246D-01 0.379D-01 0.987D+00
 Gap=     0.588 Goal=   None    Shift=    0.000
 RMSDP=6.22D-04 MaxDP=4.20D-03 DE=-1.98D-02 OVMax= 5.10D-03

 Cycle   4  Pass 1  IDiag  1:
 E= -40.1810591628299     Delta-E=       -0.000251121769 Rises=F Damp=F
 DIIS: error= 2.15D-04 at cycle   4 NSaved=   4.
 NSaved= 4 IEnMin= 4 EnMin= -40.1810591628299     IErMin= 4 ErrMin= 2.15D-04
 ErrMax= 2.15D-04 EMaxC= 1.00D-01 BMatC= 1.36D-06 BMatP= 2.05D-04
 IDIUse=3 WtCom= 9.98D-01 WtEn= 2.15D-03
 Coeff-Com:  0.917D-02-0.236D-01-0.407D+00 0.142D+01
 Coeff-En:   0.000D+00 0.000D+00 0.000D+00 0.100D+01
 Coeff:      0.915D-02-0.235D-01-0.406D+00 0.142D+01
 Gap=     0.588 Goal=   None    Shift=    0.000
 RMSDP=1.87D-04 MaxDP=7.05D-04 DE=-2.51D-04 OVMax= 8.48D-04

 Cycle   5  Pass 1  IDiag  1:
 E= -40.1810627003604     Delta-E=       -0.000003537531 Rises=F Damp=F
 DIIS: error= 1.08D-05 at cycle   5 NSaved=   5.
 NSaved= 5 IEnMin= 5 EnMin= -40.1810627003604     IErMin= 5 ErrMin= 1.08D-05
 ErrMax= 1.08D-05 EMaxC= 1.00D-01 BMatC= 4.20D-09 BMatP= 1.36D-06
 IDIUse=1 WtCom= 1.00D+00 WtEn= 0.00D+00
 Coeff-Com: -0.162D-02 0.425D-02 0.740D-01-0.289D+00 0.121D+01
 Coeff:     -0.162D-02 0.425D-02 0.740D-01-0.289D+00 0.121D+01
 Gap=     0.589 Goal=   None    Shift=    0.000
 RMSDP=1.16D-05 MaxDP=3.90D-05 DE=-3.54D-06 OVMax= 4.61D-05

 Cycle   6  Pass 1  IDiag  1:
 E= -40.1810627104067     Delta-E=       -0.000000010046 Rises=F Damp=F
 DIIS: error= 8.32D-07 at cycle   6 NSaved=   6.
 NSaved= 6 IEnMin= 6 EnMin= -40.1810627104067     IErMin= 6 ErrMin= 8.32D-07
 ErrMax= 8.32D-07 EMaxC= 1.00D-01 BMatC= 2.08D-11 BMatP= 4.20D-09
 IDIUse=1 WtCom= 1.00D+00 WtEn= 0.00D+00
 Coeff-Com:  0.112D-03-0.249D-03-0.475D-02 0.202D-01-0.127D+00 0.111D+01
 Coeff:      0.112D-03-0.249D-03-0.475D-02 0.202D-01-0.127D+00 0.111D+01
 Gap=     0.589 Goal=   None    Shift=    0.000
 RMSDP=8.24D-07 MaxDP=3.54D-06 DE=-1.00D-08 OVMax= 2.53D-06

 Cycle   7  Pass 1  IDiag  1:
 E= -40.1810627104531     Delta-E=       -0.000000000046 Rises=F Damp=F
 DIIS: error= 1.18D-07 at cycle   7 NSaved=   7.
 NSaved= 7 IEnMin= 7 EnMin= -40.1810627104531     IErMin= 7 ErrMin= 1.18D-07
 ErrMax= 1.18D-07 EMaxC= 1.00D-01 BMatC= 3.67D-13 BMatP= 2.08D-11
 IDIUse=1 WtCom= 1.00D+00 WtEn= 0.00D+00
 Coeff-Com:  0.124D-05-0.123D-04-0.111D-03 0.131D-03 0.651D-02-0.204D+00
 Coeff-Com:  0.120D+01
 Coeff:      0.124D-05-0.123D-04-0.111D-03 0.131D-03 0.651D-02-0.204D+00
 Coeff:      0.120D+01
 Gap=     0.589 Goal=   None    Shift=    0.000
 RMSDP=1.50D-07 MaxDP=9.90D-07 DE=-4.64D-11 OVMax= 4.12D-07

 Cycle   8  Pass 1  IDiag  1:
 E= -40.1810627104539     Delta-E=       -0.000000000001 Rises=F Damp=F
 DIIS: error= 3.72D-09 at cycle   8 NSaved=   8.
 NSaved= 8 IEnMin= 8 EnMin= -40.1810627104539     IErMin= 8 ErrMin= 3.72D-09
 ErrMax= 3.72D-09 EMaxC= 1.00D-01 BMatC= 5.15D-16 BMatP= 3.67D-13
 IDIUse=1 WtCom= 1.00D+00 WtEn= 0.00D+00
 Coeff-Com: -0.269D-06 0.250D-05 0.228D-04-0.357D-04-0.124D-02 0.393D-01
 Coeff-Com: -0.238D+00 0.120D+01
 Coeff:     -0.269D-06 0.250D-05 0.228D-04-0.357D-04-0.124D-02 0.393D-01
 Coeff:     -0.238D+00 0.120D+01
 Gap=     0.589 Goal=   None    Shift=    0.000
 RMSDP=3.39D-09 MaxDP=1.45D-08 DE=-8.10D-13 OVMax= 2.03D-08

 SCF Done:  E(RHF) =  -40.1810627105     A.U. after    8 cycles
             Convg  =    0.3394D-08             -V/T =  1.9995
 KE= 4.020316777663D+01 PE=-1.198498763006D+02 EE= 2.603025661812D+01
 Leave Link  502 at Sat Aug 17 14:54:12 2024, MaxMem=   13107200 cpu:       0.1
 (Enter /programs/64bit/g09/g09-gfortran/bin/l601.exe)
 Copying SCF densities to generalized density rwf, IOpCl= 0 IROHF=0.

 **********************************************************************

            Population analysis using the SCF density.

 **********************************************************************

 Orbital symmetries:
       Occupied  (A1) (A1) (T2) (T2) (T2)
       Virtual   (A1) (T2) (T2) (T2) (T2) (T2) (T2) (A1) (T2) (T2)
                 (T2) (A1) (T2) (T2) (T2) (T2) (T2) (T2) (A1) (A1)
 The electronic state is 1-A1.
 Alpha  occ. eigenvalues --  -11.20993  -0.94819  -0.54499  -0.54499  -0.54499
 Alpha virt. eigenvalues --    0.04354   0.08188   0.08188   0.08188   0.16975
 Alpha virt. eigenvalues --    0.16975   0.16975   0.21584   0.35823   0.35823
 Alpha virt. eigenvalues --    0.35823   0.48481   0.92044   0.92044   0.92044
 Alpha virt. eigenvalues --    1.27846   1.27846   1.27846   1.35573   1.45376
     Molecular Orbital Coefficients:
                           1         2         3         4         5
                        (A1)--O   (A1)--O   (T2)--O   (T2)--O   (T2)--O
     Eigenvalues --   -11.20993  -0.94819  -0.54499  -0.54499  -0.54499
   1 1   C  1S          0.99617  -0.19710   0.00000   0.00000   0.00000
   2        2S          0.02566   0.37197   0.00000   0.00000   0.00000
   3        2PX         0.00000   0.00000   0.00000   0.43664   0.00000
   4        2PY         0.00000   0.00000   0.43664   0.00000   0.00000
   5        2PZ         0.00000   0.00000   0.00000   0.00000   0.43664
   6        3S         -0.01729   0.40148   0.00000   0.00000   0.00000
   7        3PX         0.00000   0.00000   0.00000   0.22314   0.00000
   8        3PY         0.00000   0.00000   0.22314   0.00000   0.00000
   9        3PZ         0.00000   0.00000   0.00000   0.00000   0.22314
  10        4S          0.00257   0.02224   0.00000   0.00000   0.00000
  11        4PX         0.00000   0.00000   0.00000   0.00712   0.00000
  12        4PY         0.00000   0.00000   0.00712   0.00000   0.00000
  13        4PZ         0.00000   0.00000   0.00000   0.00000   0.00712
  14 2   H  1S         -0.00012   0.13486   0.17437   0.17437   0.17437
  15        2S          0.00332   0.02302   0.13490   0.13490   0.13490
  16        3S         -0.00073  -0.00110   0.01282   0.01282   0.01282
  17 3   H  1S         -0.00012   0.13486  -0.17437  -0.17437   0.17437
  18        2S          0.00332   0.02302  -0.13490  -0.13490   0.13490
  19        3S         -0.00073  -0.00110  -0.01282  -0.01282   0.01282
  20 4   H  1S         -0.00012   0.13486   0.17437  -0.17437  -0.17437
  21        2S          0.00332   0.02302   0.13490  -0.13490  -0.13490
  22        3S         -0.00073  -0.00110   0.01282  -0.01282  -0.01282
  23 5   H  1S         -0.00012   0.13486  -0.17437   0.17437  -0.17437
  24        2S          0.00332   0.02302  -0.13490   0.13490  -0.13490
  25        3S         -0.00073  -0.00110  -0.01282   0.01282  -0.01282
                           6         7         8         9        10
                        (A1)--V   (T2)--V   (T2)--V   (T2)--V   (T2)--V
     Eigenvalues --     0.04354   0.08188   0.08188   0.08188   0.16975
   1 1   C  1S         -0.03554   0.00000   0.00000   0.00000   0.00000
   2        2S          0.09910   0.00000   0.00000   0.00000   0.00000
   3        2PX         0.00000  -0.10356   0.00000   0.00000  -0.04573
   4        2PY         0.00000   0.00000  -0.10356   0.00000   0.00000
   5        2PZ         0.00000   0.00000   0.00000  -0.10356   0.00000
   6        3S          0.18781   0.00000   0.00000   0.00000   0.00000
   7        3PX         0.00000   0.02145   0.00000   0.00000  -0.05978
   8        3PY         0.00000   0.00000   0.02145   0.00000   0.00000
   9        3PZ         0.00000   0.00000   0.00000   0.02145   0.00000
  10        4S          4.36114   0.00000   0.00000   0.00000   0.00000
  11        4PX         0.00000  -1.53317   0.00000   0.00000   3.37590
  12        4PY         0.00000   0.00000  -1.53317   0.00000   0.00000
  13        4PZ         0.00000   0.00000   0.00000  -1.53317   0.00000
  14 2   H  1S          0.00988  -0.01025  -0.01025  -0.01025  -0.03071
  15        2S         -0.16341  -0.09747  -0.09747  -0.09747  -0.34652
  16        3S         -1.29173   2.79378   2.79378   2.79378  -2.89971
  17 3   H  1S          0.00988   0.01025   0.01025  -0.01025   0.03071
  18        2S         -0.16341   0.09747   0.09747  -0.09747   0.34652
  19        3S         -1.29173  -2.79378  -2.79378   2.79378   2.89971
  20 4   H  1S          0.00988   0.01025  -0.01025   0.01025   0.03071
  21        2S         -0.16341   0.09747  -0.09747   0.09747   0.34652
  22        3S         -1.29173  -2.79378   2.79378  -2.79378   2.89971
  23 5   H  1S          0.00988  -0.01025   0.01025   0.01025  -0.03071
  24        2S         -0.16341  -0.09747   0.09747   0.09747  -0.34652
  25        3S         -1.29173   2.79378  -2.79378  -2.79378  -2.89971
                          11        12        13        14        15
                        (T2)--V   (T2)--V   (A1)--V   (T2)--V   (T2)--V
     Eigenvalues --     0.16975   0.16975   0.21584   0.35823   0.35823
   1 1   C  1S          0.00000   0.00000   0.09525   0.00000   0.00000
   2        2S          0.00000   0.00000  -0.10859   0.00000   0.00000
   3        2PX         0.00000   0.00000   0.00000   0.31424   0.00000
   4        2PY        -0.04573   0.00000   0.00000   0.00000   0.00000
   5        2PZ         0.00000  -0.04573   0.00000   0.00000   0.31424
   6        3S          0.00000   0.00000  -0.87952   0.00000   0.00000
   7        3PX         0.00000   0.00000   0.00000   1.60307   0.00000
   8        3PY        -0.05978   0.00000   0.00000   0.00000   0.00000
   9        3PZ         0.00000  -0.05978   0.00000   0.00000   1.60307
  10        4S          0.00000   0.00000   9.03780   0.00000   0.00000
  11        4PX         0.00000   0.00000   0.00000  -1.13389   0.00000
  12        4PY         3.37590   0.00000   0.00000   0.00000   0.00000
  13        4PZ         0.00000   3.37590   0.00000   0.00000  -1.13389
  14 2   H  1S         -0.03071  -0.03071   0.02258  -0.06284  -0.06284
  15        2S         -0.34652  -0.34652  -0.39550  -1.20438  -1.20438
  16        3S         -2.89971  -2.89971  -1.89181   1.51385   1.51385
  17 3   H  1S          0.03071  -0.03071   0.02258   0.06284  -0.06284
  18        2S          0.34652  -0.34652  -0.39550   1.20438  -1.20438
  19        3S          2.89971  -2.89971  -1.89181  -1.51385   1.51385
  20 4   H  1S         -0.03071   0.03071   0.02258   0.06284   0.06284
  21        2S         -0.34652   0.34652  -0.39550   1.20438   1.20438
  22        3S         -2.89971   2.89971  -1.89181  -1.51385  -1.51385
  23 5   H  1S          0.03071   0.03071   0.02258  -0.06284   0.06284
  24        2S          0.34652   0.34652  -0.39550  -1.20438   1.20438
  25        3S          2.89971   2.89971  -1.89181   1.51385  -1.51385
                          16        17        18        19        20
                        (T2)--V   (A1)--V   (T2)--V   (T2)--V   (T2)--V
     Eigenvalues --     0.35823   0.48481   0.92044   0.92044   0.92044
   1 1   C  1S          0.00000  -0.14379   0.00000   0.00000   0.00000
   2        2S          0.00000   0.06878   0.00000   0.00000   0.00000
   3        2PX         0.00000   0.00000   0.00000  -0.92618   0.00000
   4        2PY         0.31424   0.00000   0.00000   0.00000  -0.92618
   5        2PZ         0.00000   0.00000  -0.92618   0.00000   0.00000
   6        3S          0.00000   3.60275   0.00000   0.00000   0.00000
   7        3PX         0.00000   0.00000   0.00000   1.86257   0.00000
   8        3PY         1.60307   0.00000   0.00000   0.00000   1.86257
   9        3PZ         0.00000   0.00000   1.86257   0.00000   0.00000
  10        4S          0.00000   7.55614   0.00000   0.00000   0.00000
  11        4PX         0.00000   0.00000   0.00000  -1.60835   0.00000
  12        4PY        -1.13389   0.00000   0.00000   0.00000  -1.60835
  13        4PZ         0.00000   0.00000  -1.60835   0.00000   0.00000
  14 2   H  1S         -0.06284  -0.05788  -0.28185  -0.28185  -0.28185
  15        2S         -1.20438  -2.16907  -0.07585  -0.07585  -0.07585
  16        3S          1.51385  -1.25309   1.19265   1.19265   1.19265
  17 3   H  1S          0.06284  -0.05788  -0.28185   0.28185   0.28185
  18        2S          1.20438  -2.16907  -0.07585   0.07585   0.07585
  19        3S         -1.51385  -1.25309   1.19265  -1.19265  -1.19265
  20 4   H  1S         -0.06284  -0.05788   0.28185   0.28185  -0.28185
  21        2S         -1.20438  -2.16907   0.07585   0.07585  -0.07585
  22        3S          1.51385  -1.25309  -1.19265  -1.19265   1.19265
  23 5   H  1S          0.06284  -0.05788   0.28185  -0.28185   0.28185
  24        2S          1.20438  -2.16907   0.07585  -0.07585   0.07585
  25        3S         -1.51385  -1.25309  -1.19265   1.19265  -1.19265
                          21        22        23        24        25
                        (T2)--V   (T2)--V   (T2)--V   (A1)--V   (A1)--V
     Eigenvalues --     1.27846   1.27846   1.27846   1.35573   1.45376
   1 1   C  1S          0.00000   0.00000   0.00000  -0.04171   0.09750
   2        2S          0.00000   0.00000   0.00000  -2.44379  -0.09816
   3        2PX         0.77289   0.00000   0.00000   0.00000   0.00000
   4        2PY         0.00000   0.00000   0.77289   0.00000   0.00000
   5        2PZ         0.00000   0.77289   0.00000   0.00000   0.00000
   6        3S          0.00000   0.00000   0.00000   5.75185   0.57963
   7        3PX        -0.92334   0.00000   0.00000   0.00000   0.00000
   8        3PY         0.00000   0.00000  -0.92334   0.00000   0.00000
   9        3PZ         0.00000  -0.92334   0.00000   0.00000   0.00000
  10        4S          0.00000   0.00000   0.00000  -0.68191   4.67168
  11        4PX         0.03916   0.00000   0.00000   0.00000   0.00000
  12        4PY         0.00000   0.00000   0.03916   0.00000   0.00000
  13        4PZ         0.00000   0.03916   0.00000   0.00000   0.00000
  14 2   H  1S         -0.64905  -0.64905  -0.64905  -0.05757   0.77320
  15        2S          1.05574   1.05574   1.05574  -1.27112  -1.20008
  16        3S         -0.38846  -0.38846  -0.38846   0.23569  -0.79351
  17 3   H  1S          0.64905  -0.64905   0.64905  -0.05757   0.77320
  18        2S         -1.05574   1.05574  -1.05574  -1.27112  -1.20008
  19        3S          0.38846  -0.38846   0.38846   0.23569  -0.79351
  20 4   H  1S          0.64905   0.64905  -0.64905  -0.05757   0.77320
  21        2S         -1.05574  -1.05574   1.05574  -1.27112  -1.20008
  22        3S          0.38846   0.38846  -0.38846   0.23569  -0.79351
  23 5   H  1S         -0.64905   0.64905   0.64905  -0.05757   0.77320
  24        2S          1.05574  -1.05574  -1.05574  -1.27112  -1.20008
  25        3S         -0.38846   0.38846   0.38846   0.23569  -0.79351
     Density Matrix:
                           1         2         3         4         5
   1 1   C  1S          2.06241
   2        2S         -0.09552   0.27804
   3        2PX         0.00000   0.00000   0.38131
   4        2PY         0.00000   0.00000   0.00000   0.38131
   5        2PZ         0.00000   0.00000   0.00000   0.00000   0.38131
   6        3S         -0.19272   0.29779   0.00000   0.00000   0.00000
   7        3PX         0.00000   0.00000   0.19487   0.00000   0.00000
   8        3PY         0.00000   0.00000   0.00000   0.19487   0.00000
   9        3PZ         0.00000   0.00000   0.00000   0.00000   0.19487
  10        4S         -0.00365   0.01668   0.00000   0.00000   0.00000
  11        4PX         0.00000   0.00000   0.00621   0.00000   0.00000
  12        4PY         0.00000   0.00000   0.00000   0.00621   0.00000
  13        4PZ         0.00000   0.00000   0.00000   0.00000   0.00621
  14 2   H  1S         -0.05340   0.10032   0.15228   0.15228   0.15228
  15        2S         -0.00247   0.01730   0.11780   0.11780   0.11780
  16        3S         -0.00102  -0.00086   0.01120   0.01120   0.01120
  17 3   H  1S         -0.05340   0.10032  -0.15228  -0.15228   0.15228
  18        2S         -0.00247   0.01730  -0.11780  -0.11780   0.11780
  19        3S         -0.00102  -0.00086  -0.01120  -0.01120   0.01120
  20 4   H  1S         -0.05340   0.10032  -0.15228   0.15228  -0.15228
  21        2S         -0.00247   0.01730  -0.11780   0.11780  -0.11780
  22        3S         -0.00102  -0.00086  -0.01120   0.01120  -0.01120
  23 5   H  1S         -0.05340   0.10032   0.15228  -0.15228  -0.15228
  24        2S         -0.00247   0.01730   0.11780  -0.11780  -0.11780
  25        3S         -0.00102  -0.00086   0.01120  -0.01120  -0.01120
                           6         7         8         9        10
   6        3S          0.32298
   7        3PX         0.00000   0.09959
   8        3PY         0.00000   0.00000   0.09959
   9        3PZ         0.00000   0.00000   0.00000   0.09959
  10        4S          0.01777   0.00000   0.00000   0.00000   0.00100
  11        4PX         0.00000   0.00318   0.00000   0.00000   0.00000
  12        4PY         0.00000   0.00000   0.00318   0.00000   0.00000
  13        4PZ         0.00000   0.00000   0.00000   0.00318   0.00000
  14 2   H  1S          0.10830   0.07782   0.07782   0.07782   0.00600
  15        2S          0.01837   0.06020   0.06020   0.06020   0.00104
  16        3S         -0.00086   0.00572   0.00572   0.00572  -0.00005
  17 3   H  1S          0.10830  -0.07782  -0.07782   0.07782   0.00600
  18        2S          0.01837  -0.06020  -0.06020   0.06020   0.00104
  19        3S         -0.00086  -0.00572  -0.00572   0.00572  -0.00005
  20 4   H  1S          0.10830  -0.07782   0.07782  -0.07782   0.00600
  21        2S          0.01837  -0.06020   0.06020  -0.06020   0.00104
  22        3S         -0.00086  -0.00572   0.00572  -0.00572  -0.00005
  23 5   H  1S          0.10830   0.07782  -0.07782  -0.07782   0.00600
  24        2S          0.01837   0.06020  -0.06020  -0.06020   0.00104
  25        3S         -0.00086   0.00572  -0.00572  -0.00572  -0.00005
                          11        12        13        14        15
  11        4PX         0.00010
  12        4PY         0.00000   0.00010
  13        4PZ         0.00000   0.00000   0.00010
  14 2   H  1S          0.00248   0.00248   0.00248   0.21881
  15        2S          0.00192   0.00192   0.00192   0.14734   0.11027
  16        3S          0.00018   0.00018   0.00018   0.01312   0.01032
  17 3   H  1S         -0.00248  -0.00248   0.00248  -0.02444  -0.04084
  18        2S         -0.00192  -0.00192   0.00192  -0.04084  -0.03531
  19        3S         -0.00018  -0.00018   0.00018  -0.00477  -0.00351
  20 4   H  1S         -0.00248   0.00248  -0.00248  -0.02444  -0.04084
  21        2S         -0.00192   0.00192  -0.00192  -0.04084  -0.03531
  22        3S         -0.00018   0.00018  -0.00018  -0.00477  -0.00351
  23 5   H  1S          0.00248  -0.00248  -0.00248  -0.02444  -0.04084
  24        2S          0.00192  -0.00192  -0.00192  -0.04084  -0.03531
  25        3S          0.00018  -0.00018  -0.00018  -0.00477  -0.00351
                          16        17        18        19        20
  16        3S          0.00099
  17 3   H  1S         -0.00477   0.21881
  18        2S         -0.00351   0.14734   0.11027
  19        3S         -0.00033   0.01312   0.01032   0.00099
  20 4   H  1S         -0.00477  -0.02444  -0.04084  -0.00477   0.21881
  21        2S         -0.00351  -0.04084  -0.03531  -0.00351   0.14734
  22        3S         -0.00033  -0.00477  -0.00351  -0.00033   0.01312
  23 5   H  1S         -0.00477  -0.02444  -0.04084  -0.00477  -0.02444
  24        2S         -0.00351  -0.04084  -0.03531  -0.00351  -0.04084
  25        3S         -0.00033  -0.00477  -0.00351  -0.00033  -0.00477
                          21        22        23        24        25
  21        2S          0.11027
  22        3S          0.01032   0.00099
  23 5   H  1S         -0.04084  -0.00477   0.21881
  24        2S         -0.03531  -0.00351   0.14734   0.11027
  25        3S         -0.00351  -0.00033   0.01312   0.01032   0.00099
    Full Mulliken population analysis:
                           1         2         3         4         5
   1 1   C  1S          2.06241
   2        2S         -0.02092   0.27804
   3        2PX         0.00000   0.00000   0.38131
   4        2PY         0.00000   0.00000   0.00000   0.38131
   5        2PZ         0.00000   0.00000   0.00000   0.00000   0.38131
   6        3S         -0.03551   0.24189   0.00000   0.00000   0.00000
   7        3PX         0.00000   0.00000   0.11103   0.00000   0.00000
   8        3PY         0.00000   0.00000   0.00000   0.11103   0.00000
   9        3PZ         0.00000   0.00000   0.00000   0.00000   0.11103
  10        4S         -0.00025   0.00670   0.00000   0.00000   0.00000
  11        4PX         0.00000   0.00000   0.00102   0.00000   0.00000
  12        4PY         0.00000   0.00000   0.00000   0.00102   0.00000
  13        4PZ         0.00000   0.00000   0.00000   0.00000   0.00102
  14 2   H  1S         -0.00175   0.02746   0.03247   0.03247   0.03247
  15        2S         -0.00023   0.00824   0.01807   0.01807   0.01807
  16        3S         -0.00005  -0.00026   0.00029   0.00029   0.00029
  17 3   H  1S         -0.00175   0.02746   0.03247   0.03247   0.03247
  18        2S         -0.00023   0.00824   0.01807   0.01807   0.01807
  19        3S         -0.00005  -0.00026   0.00029   0.00029   0.00029
  20 4   H  1S         -0.00175   0.02746   0.03247   0.03247   0.03247
  21        2S         -0.00023   0.00824   0.01807   0.01807   0.01807
  22        3S         -0.00005  -0.00026   0.00029   0.00029   0.00029
  23 5   H  1S         -0.00175   0.02746   0.03247   0.03247   0.03247
  24        2S         -0.00023   0.00824   0.01807   0.01807   0.01807
  25        3S         -0.00005  -0.00026   0.00029   0.00029   0.00029
                           6         7         8         9        10
   6        3S          0.32298
   7        3PX         0.00000   0.09959
   8        3PY         0.00000   0.00000   0.09959
   9        3PZ         0.00000   0.00000   0.00000   0.09959
  10        4S          0.01293   0.00000   0.00000   0.00000   0.00100
  11        4PX         0.00000   0.00187   0.00000   0.00000   0.00000
  12        4PY         0.00000   0.00000   0.00187   0.00000   0.00000
  13        4PZ         0.00000   0.00000   0.00000   0.00187   0.00000
  14 2   H  1S          0.04083   0.02314   0.02314   0.02314   0.00155
  15        2S          0.01294   0.02025   0.02025   0.02025   0.00067
  16        3S         -0.00050   0.00058   0.00058   0.00058  -0.00005
  17 3   H  1S          0.04083   0.02314   0.02314   0.02314   0.00155
  18        2S          0.01294   0.02025   0.02025   0.02025   0.00067
  19        3S         -0.00050   0.00058   0.00058   0.00058  -0.00005
  20 4   H  1S          0.04083   0.02314   0.02314   0.02314   0.00155
  21        2S          0.01294   0.02025   0.02025   0.02025   0.00067
  22        3S         -0.00050   0.00058   0.00058   0.00058  -0.00005
  23 5   H  1S          0.04083   0.02314   0.02314   0.02314   0.00155
  24        2S          0.01294   0.02025   0.02025   0.02025   0.00067
  25        3S         -0.00050   0.00058   0.00058   0.00058  -0.00005
                          11        12        13        14        15
  11        4PX         0.00010
  12        4PY         0.00000   0.00010
  13        4PZ         0.00000   0.00000   0.00010
  14 2   H  1S          0.00030   0.00030   0.00030   0.21881
  15        2S          0.00048   0.00048   0.00048   0.09700   0.11027
  16        3S          0.00004   0.00004   0.00004   0.00355   0.00701
  17 3   H  1S          0.00030   0.00030   0.00030  -0.00045  -0.00609
  18        2S          0.00048   0.00048   0.00048  -0.00609  -0.01418
  19        3S          0.00004   0.00004   0.00004  -0.00088  -0.00171
  20 4   H  1S          0.00030   0.00030   0.00030  -0.00045  -0.00609
  21        2S          0.00048   0.00048   0.00048  -0.00609  -0.01418
  22        3S          0.00004   0.00004   0.00004  -0.00088  -0.00171
  23 5   H  1S          0.00030   0.00030   0.00030  -0.00045  -0.00609
  24        2S          0.00048   0.00048   0.00048  -0.00609  -0.01418
  25        3S          0.00004   0.00004   0.00004  -0.00088  -0.00171
                          16        17        18        19        20
  16        3S          0.00099
  17 3   H  1S         -0.00088   0.21881
  18        2S         -0.00171   0.09700   0.11027
  19        3S         -0.00027   0.00355   0.00701   0.00099
  20 4   H  1S         -0.00088  -0.00045  -0.00609  -0.00088   0.21881
  21        2S         -0.00171  -0.00609  -0.01418  -0.00171   0.09700
  22        3S         -0.00027  -0.00088  -0.00171  -0.00027   0.00355
  23 5   H  1S         -0.00088  -0.00045  -0.00609  -0.00088  -0.00045
  24        2S         -0.00171  -0.00609  -0.01418  -0.00171  -0.00609
  25        3S         -0.00027  -0.00088  -0.00171  -0.00027  -0.00088
                          21        22        23        24        25
  21        2S          0.11027
  22        3S          0.00701   0.00099
  23 5   H  1S         -0.00609  -0.00088   0.21881
  24        2S         -0.01418  -0.00171   0.09700   0.11027
  25        3S         -0.00171  -0.00027   0.00355   0.00701   0.00099
     Gross orbital populations:
                           1
   1 1   C  1S          1.99761
   2        2S          0.64743
   3        2PX         0.69671
   4        2PY         0.69671
   5        2PZ         0.69671
   6        3S          0.75537
   7        3PX         0.38835
   8        3PY         0.38835
   9        3PZ         0.38835
  10        4S          0.02907
  11        4PX         0.00627
  12        4PY         0.00627
  13        4PZ         0.00627
  14 2   H  1S          0.53293
  15        2S          0.28636
  16        3S          0.00483
  17 3   H  1S          0.53293
  18        2S          0.28636
  19        3S          0.00483
  20 4   H  1S          0.53293
  21        2S          0.28636
  22        3S          0.00483
  23 5   H  1S          0.53293
  24        2S          0.28636
  25        3S          0.00483
          Condensed to atoms (all electrons):
              1          2          3          4          5
     1  C    5.200613   0.375717   0.375717   0.375717   0.375717
     2  H    0.375717   0.545166  -0.032251  -0.032251  -0.032251
     3  H    0.375717  -0.032251   0.545166  -0.032251  -0.032251
     4  H    0.375717  -0.032251  -0.032251   0.545166  -0.032251
     5  H    0.375717  -0.032251  -0.032251  -0.032251   0.545166
 Mulliken atomic charges:
              1
     1  C   -0.703480
     2  H    0.175870
     3  H    0.175870
     4  H    0.175870
     5  H    0.175870
 Sum of Mulliken atomic charges =  -0.00000
 Mulliken charges with hydrogens summed into heavy atoms:
              1
     1  C   -0.000000
 Sum of Mulliken charges with hydrogens summed into heavy atoms =  -0.00000
 Electronic spatial extent (au):  <R**2>=             36.0726
 Charge=             -0.0000 electrons
 Dipole moment (field-independent basis, Debye):
    X=             -0.0000    Y=             -0.0000    Z=             -0.0000  Tot=              0.0000
 Quadrupole moment (field-independent basis, Debye-Ang):
   XX=             -8.5640   YY=             -8.5640   ZZ=             -8.5640
   XY=             -0.0000   XZ=             -0.0000   YZ=             -0.0000
 Traceless Quadrupole moment (field-independent basis, Debye-Ang):
   XX=             -0.0000   YY=             -0.0000   ZZ=              0.0000
   XY=             -0.0000   XZ=             -0.0000   YZ=             -0.0000
 Octapole moment (field-independent basis, Debye-Ang**2):
  XXX=             -0.0000  YYY=             -0.0000  ZZZ=             -0.0000  XYY=              0.0000
  XXY=              0.0000  XXZ=              0.0000  XZZ=             -0.0000  YZZ=             -0.0000
  YYZ=             -0.0000  XYZ=              0.6416
 Hexadecapole moment (field-independent basis, Debye-Ang**3):
 XXXX=            -16.8325 YYYY=            -16.8325 ZZZZ=            -16.8325 XXXY=              0.0000
 XXXZ=             -0.0000 YYYX=             -0.0000 YYYZ=             -0.0000 ZZZX=             -0.0000
 ZZZY=             -0.0000 XXYY=             -5.2009 XXZZ=             -5.2009 YYZZ=             -5.2009
 XXYZ=             -0.0000 YYXZ=             -0.0000 ZZXY=             -0.0000
 N-N= 1.343538919541D+01 E-N=-1.198498763238D+02  KE= 4.020316777663D+01
 Symmetry A    KE= 3.453051967455D+01
 Symmetry B1   KE= 1.890882700693D+00
 Symmetry B2   KE= 1.890882700693D+00
 Symmetry B3   KE= 1.890882700693D+00
 Orbital energies and kinetic energies (alpha):
                                 1                 2
   1         (A1)--O         -11.209925         16.017967
   2         (A1)--O          -0.948193          1.247293
   3         (T2)--O          -0.544993          0.945441
   4         (T2)--O          -0.544993          0.945441
   5         (T2)--O          -0.544993          0.945441
   6         (A1)--V           0.043536          0.093813
   7         (T2)--V           0.081877          0.113083
   8         (T2)--V           0.081877          0.113083
   9         (T2)--V           0.081877          0.113083
  10         (T2)--V           0.169751          0.212609
  11         (T2)--V           0.169751          0.212609
  12         (T2)--V           0.169751          0.212609
  13         (A1)--V           0.215840          0.462422
  14         (T2)--V           0.358229          0.793292
  15         (T2)--V           0.358229          0.793292
  16         (T2)--V           0.358229          0.793292
  17         (A1)--V           0.484808          1.045885
  18         (T2)--V           0.920438          1.916673
  19         (T2)--V           0.920438          1.916673
  20         (T2)--V           0.920438          1.916673
  21         (T2)--V           1.278464          2.757547
  22         (T2)--V           1.278464          2.757547
  23         (T2)--V           1.278464          2.757547
  24         (A1)--V           1.355725          2.343862
  25         (A1)--V           1.453757          2.701510
 Total kinetic energy from orbitals= 4.020316777663D+01
 No NMR shielding tensors so no spin-rotation constants.
 Leave Link  601 at Sat Aug 17 14:54:12 2024, MaxMem=   13107200 cpu:       0.1
 (Enter /programs/64bit/g09/g09-gfortran/bin/l701.exe)
 Compute integral first derivatives.
 ... and contract with generalized density number  0.
 Leave Link  701 at Sat Aug 17 14:54:12 2024, MaxMem=   13107200 cpu:       0.1
 (Enter /programs/64bit/g09/g09-gfortran/bin/l702.exe)
 L702 exits ... SP integral derivatives will be done elsewhere.
 Leave Link  702 at Sat Aug 17 14:54:12 2024, MaxMem=   13107200 cpu:       0.0
 (Enter /programs/64bit/g09/g09-gfortran/bin/l703.exe)
 Compute integral first derivatives, UseDBF=F ICtDFT=           0.
 Integral derivatives from FoFDir, PRISM(SPDF).
 Calling FoFJK, ICntrl=      2127 FMM=F ISym2X=1 I1Cent= 0 IOpClX= 0 NMat=1 NMatS=1 NMatT=0.
 FoFCou: FMM=F IPFlag=           0 FMFlag=      100000 FMFlg1=         800
         NFxFlg=           0 DoJE=F BraDBF=F KetDBF=F FulRan=T
         Omega=  0.000000  0.000000  1.000000  0.000000  0.000000 ICntrl=    2127 IOpCl=  0
         NMat0=    1 NMatS0=    1 NMatT0=    0 NMatD0=    1 NMtDS0=    0 NMtDT0=    0
         I1Cent=           0 NGrid=           0.
 Petite list used in FoFCou.
 Leave Link  703 at Sat Aug 17 14:54:12 2024, MaxMem=   13107200 cpu:       0.1
 (Enter /programs/64bit/g09/g09-gfortran/bin/l716.exe)
 Dipole        =-2.22044605D-16-4.44089210D-16-2.22044605D-16
 ***** Axes restored to original set *****
 -------------------------------------------------------------------
 Center     Atomic                   Forces (Hartrees/Bohr)
 Number     Number              X              Y              Z
 -------------------------------------------------------------------
      1        6           0.000000000   -0.000000000    0.000000000
      2        1          -0.000000000   -0.000000000   -0.005442707
      3        1          -0.005131433    0.000000000    0.001814236
      4        1           0.002565717    0.004443951    0.001814236
      5        1           0.002565717   -0.004443951    0.001814236
 -------------------------------------------------------------------
 Cartesian Forces:  Max     0.005442707 RMS     0.002810602
 Leave Link  716 at Sat Aug 17 14:54:12 2024, MaxMem=   13107200 cpu:       0.0
 (Enter /programs/64bit/g09/g09-gfortran/bin/l103.exe)

 GradGradGradGradGradGradGradGradGradGradGradGradGradGradGradGradGradGrad
 Berny optimization.
 Internal  Forces:  Max     0.005442707 RMS     0.002909249
 Search for a local minimum.
 Step number   1 out of a maximum of   24
 All quantities printed in internal units (Hartrees-Bohrs-Radians)
 RMS Force = .29092D-02 SwitMx=.10000D-02 MixMth= 1
 Mixed Optimization -- RFO/linear search
 Second derivative matrix not updated -- first step.
 The second derivative matrix:
                          R1        R2        R3        R4        A1
           R1           0.34813
           R2           0.00000   0.34813
           R3           0.00000   0.00000   0.34813
           R4           0.00000   0.00000   0.00000   0.34813
           A1           0.00000   0.00000   0.00000   0.00000   0.16000
           A2           0.00000   0.00000   0.00000   0.00000   0.00000
           A3           0.00000   0.00000   0.00000   0.00000   0.00000
           A4           0.00000   0.00000   0.00000   0.00000   0.00000
           A5           0.00000   0.00000   0.00000   0.00000   0.00000
           A6           0.00000   0.00000   0.00000   0.00000   0.00000
           D1           0.00000   0.00000   0.00000   0.00000   0.00000
           D2           0.00000   0.00000   0.00000   0.00000   0.00000
           D3           0.00000   0.00000   0.00000   0.00000   0.00000
           D4           0.00000   0.00000   0.00000   0.00000   0.00000
                          A2        A3        A4        A5        A6
           A2           0.16000
           A3           0.00000   0.16000
           A4           0.00000   0.00000   0.16000
           A5           0.00000   0.00000   0.00000   0.16000
           A6           0.00000   0.00000   0.00000   0.00000   0.16000
           D1           0.00000   0.00000   0.00000   0.00000   0.00000
           D2           0.00000   0.00000   0.00000   0.00000   0.00000
           D3           0.00000   0.00000   0.00000   0.00000   0.00000
           D4           0.00000   0.00000   0.00000   0.00000   0.00000
                          D1        D2        D3        D4
           D1           0.00235
           D2           0.00000   0.00235
           D3           0.00000   0.00000   0.00235
           D4           0.00000   0.00000   0.00000   0.00235
     Eigenvalues ---    0.05086   0.05718   0.08643   0.16000   0.16000
     Eigenvalues ---    0.34813   0.34813   0.34813   0.348131000.00000
     Eigenvalues --- 1000.000001000.000001000.000001000.00000
 RFO step:  Lambda=-3.40038816D-04 EMin= 5.08565158D-02
 Linear search not attempted -- first point.
 Iteration  1 RMS(Cart)=  0.00834872 RMS(Int)=  0.00000000
 Iteration  2 RMS(Cart)=  0.00000000 RMS(Int)=  0.00000000
 ClnCor:  largest displacement from symmetrization is 1.39D-14 for atom     5.
 Variable       Old X    -DE/DX   Delta X   Delta X   Delta X     New X
                                 (Linear)    (Quad)   (Total)
    R1        2.05980  -0.00544   0.00000  -0.01562  -0.01562   2.04418
    R2        2.05980  -0.00544   0.00000  -0.01562  -0.01562   2.04418
    R3        2.05980  -0.00544   0.00000  -0.01562  -0.01562   2.04418
    R4        2.05980  -0.00544   0.00000  -0.01562  -0.01562   2.04418
    A1        1.91063   0.00000   0.00000   0.00000   0.00000   1.91063
    A2        1.91063  -0.00000   0.00000  -0.00000  -0.00000   1.91063
    A3        1.91063  -0.00000   0.00000  -0.00000   0.00000   1.91063
    A4        1.91063  -0.00000   0.00000  -0.00000   0.00000   1.91063
    A5        1.91063   0.00000   0.00000   0.00000   0.00000   1.91063
    A6        1.91063   0.00000   0.00000   0.00000   0.00000   1.91063
    D1       -2.09440  -0.00000   0.00000  -0.00000   0.00000  -2.09440
    D2        2.09440   0.00000   0.00000   0.00000   0.00000   2.09440
    D3       -2.09440   0.00000   0.00000   0.00000   0.00000  -2.09440
    D4        2.09440   0.00000   0.00000   0.00000   0.00000   2.09440
         Item               Value     Threshold  Converged?
 Maximum Force            0.005443     0.000450     NO 
 RMS     Force            0.002909     0.000300     NO 
 Maximum Displacement     0.015619     0.001800     NO 
 RMS     Displacement     0.008349     0.001200     NO 
 Predicted change in Energy=-1.701855D-04
 GradGradGradGradGradGradGradGradGradGradGradGradGradGradGradGradGradGrad

 Leave Link  103 at Sat Aug 17 14:54:12 2024, MaxMem=   13107200 cpu:       0.0
 (Enter /programs/64bit/g09/g09-gfortran/bin/l202.exe)
                          Input orientation:                          
 ---------------------------------------------------------------------
 Center     Atomic      Atomic             Coordinates (Angstroms)
 Number     Number       Type             X           Y           Z
 ---------------------------------------------------------------------
      1          6           0        0.000000    0.000000   -0.000000
      2          1           0        0.000000   -0.000000    1.081735
      3          1           0        1.019869   -0.000000   -0.360578
      4          1           0       -0.509935   -0.883233   -0.360578
      5          1           0       -0.509935    0.883233   -0.360578
 ---------------------------------------------------------------------
                    Distance matrix (angstroms):
                    1          2          3          4          5
     1  C    0.000000
     2  H    1.081735   0.000000
     3  H    1.081735   1.766465   0.000000
     4  H    1.081735   1.766465   1.766465   0.000000
     5  H    1.081735   1.766465   1.766465   1.766465   0.000000
 Stoichiometry    CH4
 Framework group  TD[O(C),4C3(H)]
 Deg. of freedom     1
 Prev. full point group           TD      NOp  24
 Prev. largest Abelian subgroup   D2      NOp   4
       concise Abelian subgroup   D2      NOp   4
                   Standard orientation:
 ---------------------------------------------------------------------
 Center     Atomic                     Coordinates (Angstroms)
 Number     Number                        X           Y           Z
 ---------------------------------------------------------------------
      1          6                    0.000000    0.000000    0.000000
      2          1                    0.803108    0.488848    0.534972
      3          1                   -0.698540   -0.425198    0.708095
      4          1                   -0.511518    0.722631   -0.621533
      5          1                    0.406950   -0.786281   -0.621533
 ---------------------------------------------------------------------
 TstSym:  Max error for IOp=  2 IAt=    5 Err= 7.49D-01
 TstSym:  IOp= 25 I=    6 IP=    4 Err= 7.49D-01
  CI=  0.000000000000D+00  0.000000000000D+00  0.000000000000D+00
   T=  7.690245393762D-01  1.485855972733D+00  1.174527651635D+00
 CIP= -9.666290687278D-01  1.365574954867D+00 -1.174527651635D+00
 Unable to use previous symmetry information.  Redetermining point group.
 No symmetry information on checkpoint file.  Reassigning symmetry.
 Symm:  InNGrp=TD   InAxis=0.
 Stoichiometry    CH4
 Framework group  TD[O(C),4C3(H)]
 Deg. of freedom     1
 Full point group                 TD      NOp  24
 Largest Abelian subgroup         D2      NOp   4
 Largest concise Abelian subgroup D2      NOp   4
                         Standard orientation:                         
 ---------------------------------------------------------------------
 Center     Atomic      Atomic             Coordinates (Angstroms)
 Number     Number       Type             X           Y           Z
 ---------------------------------------------------------------------
      1          6           0        0.000000    0.000000    0.000000
      2          1           0        0.624540    0.624540    0.624540
      3          1           0       -0.624540   -0.624540    0.624540
      4          1           0       -0.624540    0.624540   -0.624540
      5          1           0        0.624540   -0.624540   -0.624540
 ---------------------------------------------------------------------
 Rotational constants (GHZ):    160.7021713    160.7021713    160.7021713
 Leave Link  202 at Sat Aug 17 14:54:12 2024, MaxMem=   13107200 cpu:       0.0
 (Enter /programs/64bit/g09/g09-gfortran/bin/l301.exe)
 Standard basis: 6-31++G (6D, 7F)
 Ernie: Thresh=  0.10000D-02 Tol=  0.10000D-05 Strict=F.
 There are     7 symmetry adapted basis functions of A   symmetry.
 There are     6 symmetry adapted basis functions of B1  symmetry.
 There are     6 symmetry adapted basis functions of B2  symmetry.
 There are     6 symmetry adapted basis functions of B3  symmetry.
 Integral buffers will be    131072 words long.
 Raffenetti 1 integral format.
 Two-electron integral symmetry is turned on.
    25 basis functions,    46 primitive gaussians,    25 cartesian basis functions
     5 alpha electrons        5 beta electrons
       nuclear repulsion energy        13.5380452546 Hartrees.
 IExCor=    0 DFT=F Ex=HF Corr=None ExCW=0 ScaHFX=  1.000000
 ScaDFX=  1.000000  1.000000  1.000000  1.000000 ScalE2=  1.000000  1.000000
 IRadAn=      0 IRanWt=     -1 IRanGd=            0 ICorTp=0
 NAtoms=    5 NActive=    5 NUniq=    2 SFac= 3.00D+00 NAtFMM=   80 NAOKFM=F Big=F
 Leave Link  301 at Sat Aug 17 14:54:12 2024, MaxMem=   13107200 cpu:       0.1
 (Enter /programs/64bit/g09/g09-gfortran/bin/l302.exe)
 NPDir=0 NMtPBC=     1 NCelOv=     1 NCel=       1 NClECP=     1 NCelD=      1
         NCelK=      1 NCelE2=     1 NClLst=     1 CellRange=     0.0.
 One-electron integrals computed using PRISM.
 One-electron integral symmetry used in STVInt
 NBasis=    25 RedAO= T  NBF=     7     6     6     6
 NBsUse=    25 1.00D-06 NBFU=     7     6     6     6
 Leave Link  302 at Sat Aug 17 14:54:12 2024, MaxMem=   13107200 cpu:       0.1
 (Enter /programs/64bit/g09/g09-gfortran/bin/l303.exe)
 DipDrv:  MaxL=1.
 Leave Link  303 at Sat Aug 17 14:54:12 2024, MaxMem=   13107200 cpu:       0.0
 (Enter /programs/64bit/g09/g09-gfortran/bin/l401.exe)
 Initial guess read from the read-write file.
 B after Tr=     0.000000    0.000000    0.000000
         Rot=    1.000000    0.000000    0.000000    0.000000 Ang=   0.00 deg.
 Guess basis will be translated and rotated to current coordinates.
 Initial guess orbital symmetries:
       Occupied  (A1) (A1) (T2) (T2) (T2)
       Virtual   (A1) (T2) (T2) (T2) (T2) (T2) (T2) (A1) (T2) (T2)
                 (T2) (A1) (T2) (T2) (T2) (T2) (T2) (T2) (A1) (A1)
 The electronic state of the initial guess is 1-A1.
 Leave Link  401 at Sat Aug 17 14:54:12 2024, MaxMem=   13107200 cpu:       0.1
 (Enter /programs/64bit/g09/g09-gfortran/bin/l502.exe)
 Closed shell SCF:
 Requested convergence on RMS density matrix=1.00D-08 within 128 cycles.
 Requested convergence on MAX density matrix=1.00D-06.
 Requested convergence on             energy=1.00D-06.
 No special actions if energy rises.
 Using DIIS extrapolation, IDIIS=  1040.
 Integral symmetry usage will be decided dynamically.
 Keep R1 ints in memory in canonical form, NReq=873804.
 IEnd=       20815 IEndB=       20815 NGot=    13107200 MDV=    13050673
 LenX=    13050673 LenY=    13049607
 Symmetry not used in FoFDir.
 MinBra= 0 MaxBra= 1 Meth= 1.
 IRaf=       0 NMat=   1 IRICut=       1 DoRegI=T DoRafI=F ISym2E= 0 JSym2E=0.

 Cycle   1  Pass 1  IDiag  1:
 E= -40.1811724163893    
 DIIS: error= 1.33D-03 at cycle   1 NSaved=   1.
 NSaved= 1 IEnMin= 1 EnMin= -40.1811724163893     IErMin= 1 ErrMin= 1.33D-03
 ErrMax= 1.33D-03 EMaxC= 1.00D-01 BMatC= 3.87D-05 BMatP= 3.87D-05
 IDIUse=3 WtCom= 9.87D-01 WtEn= 1.33D-02
 Coeff-Com:  0.100D+01
 Coeff-En:   0.100D+01
 Coeff:      0.100D+01
 Gap=     0.593 Goal=   None    Shift=    0.000
 GapD=    0.593 DampG=2.000 DampE=1.000 DampFc=2.0000 IDamp=-1.
 RMSDP=2.79D-04 MaxDP=1.91D-03              OVMax= 2.48D-03

 Cycle   2  Pass 1  IDiag  1:
 E= -40.1812145074125     Delta-E=       -0.000042091023 Rises=F Damp=F
 DIIS: error= 4.48D-04 at cycle   2 NSaved=   2.
 NSaved= 2 IEnMin= 2 EnMin= -40.1812145074125     IErMin= 2 ErrMin= 4.48D-04
 ErrMax= 4.48D-04 EMaxC= 1.00D-01 BMatC= 5.15D-06 BMatP= 3.87D-05
 IDIUse=3 WtCom= 9.96D-01 WtEn= 4.48D-03
 Coeff-Com:  0.208D+00 0.792D+00
 Coeff-En:   0.000D+00 0.100D+01
 Coeff:      0.207D+00 0.793D+00
 Gap=     0.591 Goal=   None    Shift=    0.000
 RMSDP=6.46D-05 MaxDP=5.93D-04 DE=-4.21D-05 OVMax= 6.10D-04

 Cycle   3  Pass 1  IDiag  1:
 E= -40.1812195499561     Delta-E=       -0.000005042544 Rises=F Damp=F
 DIIS: error= 7.21D-05 at cycle   3 NSaved=   3.
 NSaved= 3 IEnMin= 3 EnMin= -40.1812195499561     IErMin= 3 ErrMin= 7.21D-05
 ErrMax= 7.21D-05 EMaxC= 1.00D-01 BMatC= 1.23D-07 BMatP= 5.15D-06
 IDIUse=1 WtCom= 1.00D+00 WtEn= 0.00D+00
 Coeff-Com: -0.598D-01-0.143D-01 0.107D+01
 Coeff:     -0.598D-01-0.143D-01 0.107D+01
 Gap=     0.591 Goal=   None    Shift=    0.000
 RMSDP=1.70D-05 MaxDP=1.48D-04 DE=-5.04D-06 OVMax= 1.31D-04

 Cycle   4  Pass 1  IDiag  1:
 E= -40.1812197227573     Delta-E=       -0.000000172801 Rises=F Damp=F
 DIIS: error= 5.40D-06 at cycle   4 NSaved=   4.
 NSaved= 4 IEnMin= 4 EnMin= -40.1812197227573     IErMin= 4 ErrMin= 5.40D-06
 ErrMax= 5.40D-06 EMaxC= 1.00D-01 BMatC= 8.68D-10 BMatP= 1.23D-07
 IDIUse=1 WtCom= 1.00D+00 WtEn= 0.00D+00
 Coeff-Com:  0.128D-01 0.333D-02-0.268D+00 0.125D+01
 Coeff:      0.128D-01 0.333D-02-0.268D+00 0.125D+01
 Gap=     0.591 Goal=   None    Shift=    0.000
 RMSDP=5.31D-06 MaxDP=2.45D-05 DE=-1.73D-07 OVMax= 2.25D-05

 Cycle   5  Pass 1  IDiag  1:
 E= -40.1812197252601     Delta-E=       -0.000000002503 Rises=F Damp=F
 DIIS: error= 7.78D-07 at cycle   5 NSaved=   5.
 NSaved= 5 IEnMin= 5 EnMin= -40.1812197252601     IErMin= 5 ErrMin= 7.78D-07
 ErrMax= 7.78D-07 EMaxC= 1.00D-01 BMatC= 1.68D-11 BMatP= 8.68D-10
 IDIUse=1 WtCom= 1.00D+00 WtEn= 0.00D+00
 Coeff-Com: -0.168D-02-0.244D-03 0.369D-01-0.283D+00 0.125D+01
 Coeff:     -0.168D-02-0.244D-03 0.369D-01-0.283D+00 0.125D+01
 Gap=     0.591 Goal=   None    Shift=    0.000
 RMSDP=9.53D-07 MaxDP=3.41D-06 DE=-2.50D-09 OVMax= 3.78D-06

 Cycle   6  Pass 1  IDiag  1:
 E= -40.1812197253137     Delta-E=       -0.000000000054 Rises=F Damp=F
 DIIS: error= 1.01D-07 at cycle   6 NSaved=   6.
 NSaved= 6 IEnMin= 6 EnMin= -40.1812197253137     IErMin= 6 ErrMin= 1.01D-07
 ErrMax= 1.01D-07 EMaxC= 1.00D-01 BMatC= 1.42D-13 BMatP= 1.68D-11
 IDIUse=1 WtCom= 1.00D+00 WtEn= 0.00D+00
 Coeff-Com:  0.438D-03 0.115D-03-0.985D-02 0.788D-01-0.382D+00 0.131D+01
 Coeff:      0.438D-03 0.115D-03-0.985D-02 0.788D-01-0.382D+00 0.131D+01
 Gap=     0.591 Goal=   None    Shift=    0.000
 RMSDP=6.56D-08 MaxDP=2.52D-07 DE=-5.36D-11 OVMax= 2.59D-07

 Cycle   7  Pass 1  IDiag  1:
 E= -40.1812197253140     Delta-E=       -0.000000000000 Rises=F Damp=F
 DIIS: error= 5.81D-09 at cycle   7 NSaved=   7.
 NSaved= 7 IEnMin= 7 EnMin= -40.1812197253140     IErMin= 7 ErrMin= 5.81D-09
 ErrMax= 5.81D-09 EMaxC= 1.00D-01 BMatC= 4.73D-16 BMatP= 1.42D-13
 IDIUse=1 WtCom= 1.00D+00 WtEn= 0.00D+00
 Coeff-Com: -0.520D-04-0.124D-04 0.117D-02-0.944D-02 0.473D-01-0.197D+00
 Coeff-Com:  0.116D+01
 Coeff:     -0.520D-04-0.124D-04 0.117D-02-0.944D-02 0.473D-01-0.197D+00
 Coeff:      0.116D+01
 Gap=     0.591 Goal=   None    Shift=    0.000
 RMSDP=3.62D-09 MaxDP=2.72D-08 DE=-3.20D-13 OVMax= 1.74D-08

 SCF Done:  E(RHF) =  -40.1812197253     A.U. after    7 cycles
             Convg  =    0.3625D-08             -V/T =  1.9983
 KE= 4.025047833303D+01 PE=-1.200916151120D+02 EE= 2.612187179909D+01
 Leave Link  502 at Sat Aug 17 14:54:13 2024, MaxMem=   13107200 cpu:       0.1
 (Enter /programs/64bit/g09/g09-gfortran/bin/l701.exe)
 Compute integral first derivatives.
 ... and contract with generalized density number  0.
 Leave Link  701 at Sat Aug 17 14:54:13 2024, MaxMem=   13107200 cpu:       0.1
 (Enter /programs/64bit/g09/g09-gfortran/bin/l702.exe)
 L702 exits ... SP integral derivatives will be done elsewhere.
 Leave Link  702 at Sat Aug 17 14:54:13 2024, MaxMem=   13107200 cpu:       0.0
 (Enter /programs/64bit/g09/g09-gfortran/bin/l703.exe)
 Compute integral first derivatives, UseDBF=F ICtDFT=           0.
 Integral derivatives from FoFDir, PRISM(SPDF).
 Calling FoFJK, ICntrl=      2127 FMM=F ISym2X=1 I1Cent= 0 IOpClX= 0 NMat=1 NMatS=1 NMatT=0.
 FoFCou: FMM=F IPFlag=           0 FMFlag=      100000 FMFlg1=         800
         NFxFlg=           0 DoJE=F BraDBF=F KetDBF=F FulRan=T
         Omega=  0.000000  0.000000  1.000000  0.000000  0.000000 ICntrl=    2127 IOpCl=  0
         NMat0=    1 NMatS0=    1 NMatT0=    0 NMatD0=    1 NMtDS0=    0 NMtDT0=    0
         I1Cent=           0 NGrid=           0.
 Petite list used in FoFCou.
 Leave Link  703 at Sat Aug 17 14:54:13 2024, MaxMem=   13107200 cpu:       0.1
 (Enter /programs/64bit/g09/g09-gfortran/bin/l716.exe)
 Dipole        = 1.55431223D-15 8.88178420D-16 4.44089210D-16
 ***** Axes restored to original set *****
 -------------------------------------------------------------------
 Center     Atomic                   Forces (Hartrees/Bohr)
 Number     Number              X              Y              Z
 -------------------------------------------------------------------
      1        6           0.000000000    0.000000000   -0.000000000
      2        1          -0.000000000    0.000000000    0.000460677
      3        1           0.000434331   -0.000000000   -0.000153559
      4        1          -0.000217165   -0.000376142   -0.000153559
      5        1          -0.000217165    0.000376142   -0.000153559
 -------------------------------------------------------------------
 Cartesian Forces:  Max     0.000460677 RMS     0.000237893
 Leave Link  716 at Sat Aug 17 14:54:13 2024, MaxMem=   13107200 cpu:       0.0
 (Enter /programs/64bit/g09/g09-gfortran/bin/l103.exe)

 GradGradGradGradGradGradGradGradGradGradGradGradGradGradGradGradGradGrad
 Berny optimization.
 Using GEDIIS/GDIIS optimizer.
 Internal  Forces:  Max     0.000460677 RMS     0.000246242
 Search for a local minimum.
 Step number   2 out of a maximum of   24
 All quantities printed in internal units (Hartrees-Bohrs-Radians)
 RMS Force = .24624D-03 SwitMx=.10000D-02 MixMth= 2
 Mixed Optimization -- En-DIIS/RFO-DIIS
 Update second derivatives using D2CorX and points    1    2
 DE= -1.57D-04 DEPred=-1.70D-04 R= 9.23D-01
 SS=  1.41D+00  RLast= 3.12D-02 DXNew= 5.0454D-01 9.3714D-02
 Trust test= 9.23D-01 RLast= 3.12D-02 DXMaxT set to 3.00D-01
 The second derivative matrix:
                          R1        R2        R3        R4        A1
           R1           0.35559
           R2           0.00746   0.35559
           R3           0.00746   0.00746   0.35559
           R4           0.00746   0.00746   0.00746   0.35559
           A1          -0.00000  -0.00000  -0.00000  -0.00000   0.16000
           A2           0.00000   0.00000   0.00000   0.00000   0.00000
           A3          -0.00000  -0.00000  -0.00000  -0.00000  -0.00000
           A4          -0.00000  -0.00000  -0.00000  -0.00000  -0.00000
           A5           0.00000   0.00000   0.00000   0.00000   0.00000
           A6           0.00000   0.00000   0.00000   0.00000   0.00000
           D1           0.00000   0.00000   0.00000   0.00000   0.00000
           D2          -0.00000  -0.00000  -0.00000  -0.00000  -0.00000
           D3          -0.00000  -0.00000  -0.00000  -0.00000  -0.00000
           D4          -0.00000  -0.00000  -0.00000  -0.00000  -0.00000
                          A2        A3        A4        A5        A6
           A2           0.16000
           A3          -0.00000   0.16000
           A4          -0.00000   0.00000   0.16000
           A5           0.00000  -0.00000  -0.00000   0.16000
           A6           0.00000  -0.00000  -0.00000   0.00000   0.16000
           D1           0.00000  -0.00000  -0.00000   0.00000   0.00000
           D2          -0.00000   0.00000   0.00000  -0.00000  -0.00000
           D3          -0.00000   0.00000   0.00000  -0.00000  -0.00000
           D4          -0.00000   0.00000   0.00000  -0.00000  -0.00000
                          D1        D2        D3        D4
           D1           0.00235
           D2          -0.00000   0.00235
           D3          -0.00000   0.00000   0.00235
           D4          -0.00000   0.00000   0.00000   0.00235
 Use linear search instead of GDIIS.
     Eigenvalues ---    0.05086   0.05718   0.08643   0.16000   0.16000
     Eigenvalues ---    0.34813   0.34813   0.34813   0.377961000.00000
     Eigenvalues --- 1000.000001000.000001000.000001000.00000
 RFO step:  Lambda= 0.00000000D+00 EMin= 5.08565158D-02
 Quartic linear search produced a step of -0.07644.
 Iteration  1 RMS(Cart)=  0.00063817 RMS(Int)=  0.00000000
 Iteration  2 RMS(Cart)=  0.00000000 RMS(Int)=  0.00000000
 ClnCor:  largest displacement from symmetrization is 1.57D-14 for atom     4.
 Variable       Old X    -DE/DX   Delta X   Delta X   Delta X     New X
                                 (Linear)    (Quad)   (Total)
    R1        2.04418   0.00046   0.00119   0.00000   0.00119   2.04538
    R2        2.04418   0.00046   0.00119  -0.00000   0.00119   2.04538
    R3        2.04418   0.00046   0.00119   0.00000   0.00119   2.04538
    R4        2.04418   0.00046   0.00119  -0.00000   0.00119   2.04538
    A1        1.91063   0.00000   0.00000   0.00000   0.00000   1.91063
    A2        1.91063   0.00000   0.00000   0.00000  -0.00000   1.91063
    A3        1.91063  -0.00000  -0.00000  -0.00000   0.00000   1.91063
    A4        1.91063  -0.00000  -0.00000  -0.00000   0.00000   1.91063
    A5        1.91063   0.00000   0.00000   0.00000   0.00000   1.91063
    A6        1.91063   0.00000   0.00000   0.00000   0.00000   1.91063
    D1       -2.09440  -0.00000  -0.00000  -0.00000   0.00000  -2.09440
    D2        2.09440   0.00000   0.00000   0.00000   0.00000   2.09440
    D3       -2.09440  -0.00000  -0.00000  -0.00000   0.00000  -2.09440
    D4        2.09440  -0.00000  -0.00000  -0.00000   0.00000   2.09440
         Item               Value     Threshold  Converged?
 Maximum Force            0.000461     0.000450     NO 
 RMS     Force            0.000246     0.000300     YES
 Maximum Displacement     0.001194     0.001800     YES
 RMS     Displacement     0.000638     0.001200     YES
 Predicted change in Energy=-1.122522D-06
 GradGradGradGradGradGradGradGradGradGradGradGradGradGradGradGradGradGrad

 Leave Link  103 at Sat Aug 17 14:54:13 2024, MaxMem=   13107200 cpu:       0.0
 (Enter /programs/64bit/g09/g09-gfortran/bin/l202.exe)
                          Input orientation:                          
 ---------------------------------------------------------------------
 Center     Atomic      Atomic             Coordinates (Angstroms)
 Number     Number       Type             X           Y           Z
 ---------------------------------------------------------------------
      1          6           0        0.000000   -0.000000   -0.000000
      2          1           0        0.000000    0.000000    1.082367
      3          1           0        1.020465   -0.000000   -0.360789
      4          1           0       -0.510232   -0.883749   -0.360789
      5          1           0       -0.510232    0.883749   -0.360789
 ---------------------------------------------------------------------
                    Distance matrix (angstroms):
                    1          2          3          4          5
     1  C    0.000000
     2  H    1.082367   0.000000
     3  H    1.082367   1.767497   0.000000
     4  H    1.082367   1.767497   1.767497   0.000000
     5  H    1.082367   1.767497   1.767497   1.767497   0.000000
 Stoichiometry    CH4
 Framework group  TD[O(C),4C3(H)]
 Deg. of freedom     1
 Prev. full point group           TD      NOp  24
 Prev. largest Abelian subgroup   D2      NOp   4
       concise Abelian subgroup   D2      NOp   4
                   Standard orientation:
 ---------------------------------------------------------------------
 Center     Atomic                     Coordinates (Angstroms)
 Number     Number                        X           Y           Z
 ---------------------------------------------------------------------
      1          6                    0.000000    0.000000    0.000000
      2          1                    0.749762    0.403605    0.668190
      3          1                   -0.654928   -0.662746    0.550775
      4          1                   -0.579607    0.810128   -0.423398
      5          1                    0.484773   -0.550987   -0.795567
 ---------------------------------------------------------------------
 TstSym:  Max error for IOp=  3 IAt=    2 Err= 7.68D-01
 TstSym:  IOp= 25 I=    6 IP=    4 Err= 7.68D-01
  CI=  0.000000000000D+00  0.000000000000D+00  0.000000000000D+00
   T= -1.416844813734D+00  7.627029645051D-01 -1.262695307523D+00
 CIP= -1.095297941075D+00  1.530919862481D+00 -8.001070383690D-01
 Unable to use previous symmetry information.  Redetermining point group.
 No symmetry information on checkpoint file.  Reassigning symmetry.
 Symm:  InNGrp=TD   InAxis=0.
 Stoichiometry    CH4
 Framework group  TD[O(C),4C3(H)]
 Deg. of freedom     1
 Full point group                 TD      NOp  24
 Largest Abelian subgroup         D2      NOp   4
 Largest concise Abelian subgroup D2      NOp   4
                         Standard orientation:                         
 ---------------------------------------------------------------------
 Center     Atomic      Atomic             Coordinates (Angstroms)
 Number     Number       Type             X           Y           Z
 ---------------------------------------------------------------------
      1          6           0        0.000000    0.000000    0.000000
      2          1           0        0.624905    0.624905    0.624905
      3          1           0       -0.624905   -0.624905    0.624905
      4          1           0       -0.624905    0.624905   -0.624905
      5          1           0        0.624905   -0.624905   -0.624905
 ---------------------------------------------------------------------
 Rotational constants (GHZ):    160.5146188    160.5146188    160.5146188
 Leave Link  202 at Sat Aug 17 14:54:13 2024, MaxMem=   13107200 cpu:       0.0
 (Enter /programs/64bit/g09/g09-gfortran/bin/l301.exe)
 Standard basis: 6-31++G (6D, 7F)
 Ernie: Thresh=  0.10000D-02 Tol=  0.10000D-05 Strict=F.
 There are     7 symmetry adapted basis functions of A   symmetry.
 There are     6 symmetry adapted basis functions of B1  symmetry.
 There are     6 symmetry adapted basis functions of B2  symmetry.
 There are     6 symmetry adapted basis functions of B3  symmetry.
 Integral buffers will be    131072 words long.
 Raffenetti 1 integral format.
 Two-electron integral symmetry is turned on.
    25 basis functions,    46 primitive gaussians,    25 cartesian basis functions
     5 alpha electrons        5 beta electrons
       nuclear repulsion energy        13.5301429490 Hartrees.
 IExCor=    0 DFT=F Ex=HF Corr=None ExCW=0 ScaHFX=  1.000000
 ScaDFX=  1.000000  1.000000  1.000000  1.000000 ScalE2=  1.000000  1.000000
 IRadAn=      0 IRanWt=     -1 IRanGd=            0 ICorTp=0
 NAtoms=    5 NActive=    5 NUniq=    2 SFac= 3.00D+00 NAtFMM=   80 NAOKFM=F Big=F
 Leave Link  301 at Sat Aug 17 14:54:13 2024, MaxMem=   13107200 cpu:       0.1
 (Enter /programs/64bit/g09/g09-gfortran/bin/l302.exe)
 NPDir=0 NMtPBC=     1 NCelOv=     1 NCel=       1 NClECP=     1 NCelD=      1
         NCelK=      1 NCelE2=     1 NClLst=     1 CellRange=     0.0.
 One-electron integrals computed using PRISM.
 One-electron integral symmetry used in STVInt
 NBasis=    25 RedAO= T  NBF=     7     6     6     6
 NBsUse=    25 1.00D-06 NBFU=     7     6     6     6
 Leave Link  302 at Sat Aug 17 14:54:13 2024, MaxMem=   13107200 cpu:       0.1
 (Enter /programs/64bit/g09/g09-gfortran/bin/l303.exe)
 DipDrv:  MaxL=1.
 Leave Link  303 at Sat Aug 17 14:54:13 2024, MaxMem=   13107200 cpu:       0.0
 (Enter /programs/64bit/g09/g09-gfortran/bin/l401.exe)
 Initial guess read from the read-write file.
 B after Tr=     0.000000    0.000000    0.000000
         Rot=    1.000000    0.000000    0.000000    0.000000 Ang=   0.00 deg.
 Guess basis will be translated and rotated to current coordinates.
 Initial guess orbital symmetries:
       Occupied  (A1) (A1) (T2) (T2) (T2)
       Virtual   (A1) (T2) (T2) (T2) (T2) (T2) (T2) (A1) (T2) (T2)
                 (T2) (A1) (T2) (T2) (T2) (T2) (T2) (T2) (A1) (A1)
 The electronic state of the initial guess is 1-A1.
 Leave Link  401 at Sat Aug 17 14:54:13 2024, MaxMem=   13107200 cpu:       0.1
 (Enter /programs/64bit/g09/g09-gfortran/bin/l502.exe)
 Closed shell SCF:
 Requested convergence on RMS density matrix=1.00D-08 within 128 cycles.
 Requested convergence on MAX density matrix=1.00D-06.
 Requested convergence on             energy=1.00D-06.
 No special actions if energy rises.
 Using DIIS extrapolation, IDIIS=  1040.
 Integral symmetry usage will be decided dynamically.
 Keep R1 ints in memory in canonical form, NReq=873804.
 IEnd=       20815 IEndB=       20815 NGot=    13107200 MDV=    13050673
 LenX=    13050673 LenY=    13049607
 Symmetry not used in FoFDir.
 MinBra= 0 MaxBra= 1 Meth= 1.
 IRaf=       0 NMat=   1 IRICut=       1 DoRegI=T DoRafI=F ISym2E= 0 JSym2E=0.

 Cycle   1  Pass 1  IDiag  1:
 E= -40.1812205465336    
 DIIS: error= 1.02D-04 at cycle   1 NSaved=   1.
 NSaved= 1 IEnMin= 1 EnMin= -40.1812205465336     IErMin= 1 ErrMin= 1.02D-04
 ErrMax= 1.02D-04 EMaxC= 1.00D-01 BMatC= 2.28D-07 BMatP= 2.28D-07
 IDIUse=3 WtCom= 9.99D-01 WtEn= 1.02D-03
 Coeff-Com:  0.100D+01
 Coeff-En:   0.100D+01
 Coeff:      0.100D+01
 Gap=     0.590 Goal=   None    Shift=    0.000
 RMSDP=2.14D-05 MaxDP=1.47D-04              OVMax= 1.90D-04

 Cycle   2  Pass 1  IDiag  1:
 E= -40.1812207939972     Delta-E=       -0.000000247464 Rises=F Damp=F
 DIIS: error= 3.44D-05 at cycle   2 NSaved=   2.
 NSaved= 2 IEnMin= 2 EnMin= -40.1812207939972     IErMin= 2 ErrMin= 3.44D-05
 ErrMax= 3.44D-05 EMaxC= 1.00D-01 BMatC= 3.02D-08 BMatP= 2.28D-07
[...]
      X                                                                   X                                                          
      X                                                                   X                                                          
      X                                                                   X                                                          
      X                                                                   X                                                          
      X                                                                   X                                                          
      X                                                                   X                                                          
      X                                                                                                                              
      X                                                                                                                              
      X                                                                                                                              
      X                                                                                                                              
      X                                                                                                                              
      X                                                                                                                              
      X                                                                                                                              
      X                                                                                                                              
      X                                                                                                                              
 
 
                                     methane with imposed symmetry and hf/6-31++G
  basis function
                                                            Raman Spectrum
 
      3   3                                                        1      1                                                          
      2   1                                                        7      5                                                          
      8   7                                                        0      1                                                          
      8   8                                                        0      1                                                          
 
      X   X                                                        X      X                                                          
      X   X                                                        X                                                                 
      X   X                                                        X                                                                 
      X   X                                                        X                                                                 
      X   X                                                        X                                                                 
      X   X                                                                                                                          
      X   X                                                                                                                          
      X   X                                                                                                                          
      X   X                                                                                                                          
      X   X                                                                                                                          
      X   X                                                                                                                          
      X   X                                                                                                                          
      X   X                                                                                                                          
      X   X                                                                                                                          
      X   X                                                                                                                          
      X   X                                                                                                                          
      X                                                                                                                              
      X                                                                                                                              
      X                                                                                                                              
      X                                                                                                                              
 
 ***** Axes restored to original set *****
 -------------------------------------------------------------------
 Center     Atomic                   Forces (Hartrees/Bohr)
 Number     Number              X              Y              Z
 -------------------------------------------------------------------
      1        6           0.000000000   -0.000000000    0.000000000
      2        1          -0.000000000    0.000000000   -0.000000024
      3        1          -0.000000022    0.000000000    0.000000008
      4        1           0.000000011    0.000000019    0.000000008
      5        1           0.000000011   -0.000000019    0.000000008
 -------------------------------------------------------------------
 Cartesian Forces:  Max     0.000000024 RMS     0.000000012
 Force constants in Cartesian coordinates: 
                1             2             3             4             5 
      1  0.610945D+00
      2  0.000000D+00  0.610945D+00
      3  0.000000D+00  0.000000D+00  0.610945D+00
      4 -0.572504D-01  0.000000D+00  0.000000D+00  0.549231D-01
      5  0.000000D+00 -0.572504D-01  0.000000D+00  0.000000D+00  0.549231D-01
      6  0.000000D+00  0.000000D+00 -0.343708D+00  0.000000D+00  0.000000D+00
      7 -0.311880D+00  0.000000D+00  0.900250D-01  0.174045D-02  0.000000D+00
      8  0.000000D+00 -0.572504D-01  0.000000D+00  0.000000D+00 -0.188912D-03
      9  0.900250D-01  0.000000D+00 -0.890790D-01  0.382879D-01  0.000000D+00
     10 -0.120908D+00 -0.110258D+00 -0.450125D-01  0.293427D-03  0.835437D-03
     11 -0.110258D+00 -0.248222D+00 -0.779640D-01  0.835437D-03  0.125811D-02
     12 -0.450125D-01 -0.779640D-01 -0.890790D-01 -0.191439D-01 -0.331583D-01
     13 -0.120908D+00  0.110258D+00 -0.450125D-01  0.293427D-03 -0.835438D-03
     14  0.110258D+00 -0.248222D+00  0.779640D-01 -0.835438D-03  0.125811D-02
     15 -0.450125D-01  0.779640D-01 -0.890790D-01 -0.191439D-01  0.331583D-01
                6             7             8             9            10 
      6  0.377677D+00
      7 -0.133892D-02  0.341816D+00
      8  0.000000D+00  0.000000D+00  0.549231D-01
      9 -0.113230D-01 -0.101432D+00  0.000000D+00  0.907846D-01
     10  0.669459D-03 -0.158382D-01 -0.309835D-01 -0.134405D-01  0.126646D+00
     11  0.115954D-02  0.137171D-02  0.125811D-02  0.401143D-03  0.124228D+00
     12 -0.113230D-01  0.637287D-02  0.118404D-01  0.480869D-02  0.507159D-01
     13  0.669464D-03 -0.158382D-01  0.309835D-01 -0.134405D-01  0.980629D-02
     14 -0.115954D-02 -0.137170D-02  0.125811D-02 -0.401144D-03  0.161776D-01
     15 -0.113230D-01  0.637287D-02 -0.118404D-01  0.480869D-02  0.706767D-02
               11            12            13            14            15 
     11  0.270092D+00
     12  0.878426D-01  0.907846D-01
     13 -0.161776D-01  0.706767D-02  0.126646D+00
     14 -0.243864D-01  0.114393D-01 -0.124228D+00  0.270092D+00
     15 -0.114393D-01  0.480869D-02  0.507159D-01 -0.878426D-01  0.907846D-01
 Force constants in internal coordinates: 
                1             2             3             4             5 
      1  0.377677D+00
      2  0.251199D-02  0.377677D+00
      3  0.251199D-02  0.251198D-02  0.377677D+00
      4  0.251198D-02  0.251199D-02  0.251199D-02  0.377677D+00
      5  0.250813D-02  0.250813D-02 -0.157487D-02 -0.344138D-02  0.230496D-01
      6  0.393083D-02 -0.101441D-02  0.437464D-02 -0.729106D-02 -0.986568D-02
      7  0.768161D-02 -0.616507D-02 -0.682443D-02  0.530789D-02 -0.151395D-01
      8 -0.101441D-02  0.393083D-02  0.437464D-02 -0.729106D-02 -0.986568D-02
      9 -0.616507D-02  0.768161D-02 -0.682444D-02  0.530789D-02 -0.151395D-01
     10 -0.694109D-02 -0.694109D-02  0.647446D-02  0.740772D-02  0.269607D-01
     11 -0.485775D-02 -0.485775D-02 -0.342900D-02  0.131445D-01 -0.161469D-01
     12  0.400050D-02  0.400050D-02 -0.102870D-01  0.228600D-02  0.968790D-02
     13 -0.526774D-02  0.926824D-02 -0.514350D-02  0.114300D-02  0.484395D-02
     14 -0.926824D-02  0.526774D-02  0.514350D-02 -0.114300D-02 -0.484395D-02
                6             7             8             9            10 
      6  0.438234D-01
      7 -0.264207D-01  0.855988D-01
      8 -0.177062D-02  0.276944D-01  0.438234D-01
      9  0.276944D-01 -0.408929D-01 -0.264207D-01  0.855988D-01
     10 -0.334608D-01 -0.308401D-01 -0.334608D-01 -0.308401D-01  0.101641D+00
     11 -0.136690D-01  0.177620D-01 -0.136690D-01  0.177620D-01  0.796095D-02
     12 -0.113030D-01  0.883467D-02 -0.113030D-01  0.883467D-02 -0.475129D-02
     13 -0.170027D-01 -0.117411D-02  0.569975D-02  0.100088D-01 -0.237565D-02
     14 -0.569975D-02 -0.100088D-01  0.170027D-01  0.117411D-02  0.237565D-02
               11            12            13            14 
     11  0.365169D-01
     12  0.197806D-02  0.226854D-01
     13  0.989030D-03  0.113427D-01  0.229978D-01
     14 -0.989029D-03 -0.113427D-01  0.116551D-01  0.229978D-01
 Leave Link  716 at Sat Aug 17 14:54:16 2024, MaxMem=   13107200 cpu:       0.0
 (Enter /programs/64bit/g09/g09-gfortran/bin/l103.exe)

 GradGradGradGradGradGradGradGradGradGradGradGradGradGradGradGradGradGrad
 Berny optimization.
 Internal  Forces:  Max     0.000000024 RMS     0.000000013
 Search for a local minimum.
 Step number   1 out of a maximum of    2
 All quantities printed in internal units (Hartrees-Bohrs-Radians)
 Second derivative matrix not updated -- analytic derivatives used.
 The second derivative matrix:
                          R1        R2        R3        R4        A1
           R1           0.37768
           R2           0.00251   0.37768
           R3           0.00251   0.00251   0.37768
           R4           0.00251   0.00251   0.00251   0.37768
           A1           0.00251   0.00251  -0.00157  -0.00344   0.02305
           A2           0.00393  -0.00101   0.00437  -0.00729  -0.00987
           A3           0.00768  -0.00617  -0.00682   0.00531  -0.01514
           A4          -0.00101   0.00393   0.00437  -0.00729  -0.00987
           A5          -0.00617   0.00768  -0.00682   0.00531  -0.01514
           A6          -0.00694  -0.00694   0.00647   0.00741   0.02696
           D1          -0.00486  -0.00486  -0.00343   0.01314  -0.01615
           D2           0.00400   0.00400  -0.01029   0.00229   0.00969
           D3          -0.00527   0.00927  -0.00514   0.00114   0.00484
           D4          -0.00927   0.00527   0.00514  -0.00114  -0.00484
                          A2        A3        A4        A5        A6
           A2           0.04382
           A3          -0.02642   0.08560
           A4          -0.00177   0.02769   0.04382
           A5           0.02769  -0.04089  -0.02642   0.08560
           A6          -0.03346  -0.03084  -0.03346  -0.03084   0.10164
           D1          -0.01367   0.01776  -0.01367   0.01776   0.00796
           D2          -0.01130   0.00883  -0.01130   0.00883  -0.00475
           D3          -0.01700  -0.00117   0.00570   0.01001  -0.00238
           D4          -0.00570  -0.01001   0.01700   0.00117   0.00238
                          D1        D2        D3        D4
           D1           0.03652
           D2           0.00198   0.02269
           D3           0.00099   0.01134   0.02300
           D4          -0.00099  -0.01134   0.01166   0.02300
     Eigenvalues ---    0.04617   0.05213   0.07956   0.15291   0.15315
     Eigenvalues ---    0.37661   0.37663   0.37707   0.385211000.00000
     Eigenvalues --- 1000.000001000.000001000.000001000.00000
 Angle between quadratic step and forces=  90.00 degrees.
 Linear search not attempted -- first point.
 Iteration  1 RMS(Cart)=  0.00000003 RMS(Int)=  0.00000000
 ClnCor:  largest displacement from symmetrization is 1.54D-14 for atom     3.
 Variable       Old X    -DE/DX   Delta X   Delta X   Delta X     New X
                                 (Linear)    (Quad)   (Total)
    R1        2.04538  -0.00000   0.00000  -0.00000  -0.00000   2.04538
    R2        2.04538  -0.00000   0.00000  -0.00000  -0.00000   2.04538
    R3        2.04538  -0.00000   0.00000  -0.00000  -0.00000   2.04538
    R4        2.04538  -0.00000   0.00000  -0.00000  -0.00000   2.04538
    A1        1.91063   0.00000   0.00000   0.00000   0.00000   1.91063
    A2        1.91063   0.00000   0.00000   0.00000  -0.00000   1.91063
    A3        1.91063  -0.00000   0.00000  -0.00000  -0.00000   1.91063
    A4        1.91063  -0.00000   0.00000  -0.00000  -0.00000   1.91063
    A5        1.91063  -0.00000   0.00000  -0.00000   0.00000   1.91063
    A6        1.91063   0.00000   0.00000  -0.00000   0.00000   1.91063
    D1       -2.09440  -0.00000   0.00000  -0.00000  -0.00000  -2.09440
    D2        2.09440   0.00000   0.00000   0.00000   0.00000   2.09440
    D3       -2.09440  -0.00000   0.00000   0.00000   0.00000  -2.09440
    D4        2.09440  -0.00000   0.00000  -0.00000  -0.00000   2.09440
         Item               Value     Threshold  Converged?
 Maximum Force            0.000000     0.000450     YES
 RMS     Force            0.000000     0.000300     YES
 Maximum Displacement     0.000000     0.001800     YES
 RMS     Displacement     0.000000     0.001200     YES
 Predicted change in Energy=-2.892930D-15
 Optimization completed.
    -- Stationary point found.
                           ----------------------------
                           !   Optimized Parameters   !
                           ! (Angstroms and Degrees)  !
 --------------------------                            --------------------------
 ! Name  Definition              Value          Derivative Info.                !
 --------------------------------------------------------------------------------
 ! R1    R(1,2)                  1.0824         -DE/DX =    0.0                 !
 ! R2    R(1,3)                  1.0824         -DE/DX =    0.0                 !
 ! R3    R(1,4)                  1.0824         -DE/DX =    0.0                 !
 ! R4    R(1,5)                  1.0824         -DE/DX =    0.0                 !
 ! A1    A(2,1,3)              109.4712         -DE/DX =    0.0                 !
 ! A2    A(2,1,4)              109.4712         -DE/DX =    0.0                 !
 ! A3    A(2,1,5)              109.4712         -DE/DX =    0.0                 !
 ! A4    A(3,1,4)              109.4712         -DE/DX =    0.0                 !
 ! A5    A(3,1,5)              109.4712         -DE/DX =    0.0                 !
 ! A6    A(4,1,5)              109.4712         -DE/DX =    0.0                 !
 ! D1    D(2,1,4,3)           -120.0            -DE/DX =    0.0                 !
 ! D2    D(2,1,5,3)            120.0            -DE/DX =    0.0                 !
 ! D3    D(2,1,5,4)           -120.0            -DE/DX =    0.0                 !
 ! D4    D(3,1,5,4)            120.0            -DE/DX =    0.0                 !
 --------------------------------------------------------------------------------
 GradGradGradGradGradGradGradGradGradGradGradGradGradGradGradGradGradGrad

 Leave Link  103 at Sat Aug 17 14:54:16 2024, MaxMem=   13107200 cpu:       0.0
 (Enter /programs/64bit/g09/g09-gfortran/bin/l9999.exe)
 1\1\GINC-MOLMOD\Freq\RHF\6-31++G\C1H4\OSPITE\17-Aug-2024\0\\#P Geom=Al
 lCheck Guess=TCheck SCRF=Check GenChk RHF/6-31++G Freq\\methane with i
 mposed symmetry and hf/6-31++G basis function\\0,1\C,0.,0.,0.\H,0.,0.,
 1.0823665558\H,1.0204649751,0.,-0.3607888519\H,-0.5102324876,-0.883748
 5921,-0.3607888519\H,-0.5102324876,0.8837485921,-0.3607888519\\Version
 =EM64L-G09RevA.02\State=1-A1\HF=-40.1812208\RMSD=2.584e-10\RMSF=1.219e
 -08\ZeroPoint=0.0477868\Thermal=0.0506377\Dipole=0.,0.,0.\DipoleDeriv=
 -0.0015507,0.,0.,0.,-0.0015507,0.,0.,0.,-0.0015507,0.0931792,0.,0.,0.,
 0.0931792,0.,0.,0.,-0.1851954,-0.1542649,0.,0.0874847,0.,0.0931792,0.,
 0.0874847,0.,0.0622487,0.0313182,-0.1071464,-0.0437424,-0.1071464,-0.0
 924038,-0.075764,-0.0437423,-0.075764,0.0622487,0.0313182,0.1071464,-0
 .0437423,0.1071464,-0.0924038,0.075764,-0.0437424,0.075764,0.0622487\P
 olar=12.8397196,0.,12.8397196,0.,0.,12.8397196\PolarDeriv=-4.5043935,0
 .,4.5043935,3.1850872,0.,0.,0.,4.5043935,0.,0.,3.1850872,0.,3.1850872,
 0.,3.1850872,0.,0.,-6.3701744,0.5579544,0.,-0.5579541,2.1645053,0.,0.0
 000003,-0.0000002,-0.5579542,-0.0000003,0.,2.1645053,-0.0000006,0.3006
 656,0.0000001,0.3006655,0.,0.,10.217991,9.0688667,0.,0.0974854,-2.3188
 494,0.,1.0342027,0.0000006,1.8547305,0.0000003,-0.0000001,-1.2475461,0
 .0000003,-1.6975691,0.,-0.626266,2.7914476,0.,-1.282605,-2.5612135,-2.
 745483,-2.0219633,-1.515372,-0.463888,-0.5171016,-1.2236638,-2.9005853
 ,-6.7146296,-0.463888,-2.0510235,-0.8956457,-0.8940917,-0.4638879,-1.4
 297434,-1.3957238,-2.4174645,-1.282605,-2.5612132,2.7454828,-2.0219628
 ,-1.5153719,0.4638879,-0.5171011,1.223664,-2.9005853,6.7146296,0.46388
 79,-2.0510235,0.8956455,-0.8940923,0.4638881,-1.4297442,-1.3957239,2.4
 174646,-1.2826054\HyperPolar=18.8780589,0.,-18.8780589,0.,-13.3488035,
 0.,-13.3488035,0.,0.,26.697607\PG=TD [O(C1),4C3(H1)]\NImag=0\\0.610945
 28,0.,0.61094528,0.,0.,0.61094528,-0.05725036,0.,0.,0.05492305,0.,-0.0
 5725036,0.,0.,0.05492305,0.,0.,-0.34370824,0.,0.,0.37767722,-0.3118795
 9,0.,0.09002503,0.00174045,0.,-0.00133892,0.34181565,0.,-0.05725036,0.
 ,0.,-0.00018891,0.,0.,0.05492305,0.09002503,0.,-0.08907901,0.03828790,
 0.,-0.01132299,-0.10143185,0.,0.09078463,-0.12090767,-0.11025769,-0.04
 501251,0.00029343,0.00083544,0.00066946,-0.01583824,-0.03098346,-0.013
 44054,0.12664620,-0.11025769,-0.24822228,-0.07796396,0.00083544,0.0012
 5811,0.00115954,0.00137171,0.00125811,0.00040114,0.12422814,0.27009250
 ,-0.04501251,-0.07796396,-0.08907901,-0.01914395,-0.03315829,-0.011322
 99,0.00637287,0.01184042,0.00480869,0.05071592,0.08784256,0.09078463,-
 0.12090767,0.11025769,-0.04501251,0.00029343,-0.00083544,0.00066946,-0
 .01583825,0.03098346,-0.01344054,0.00980629,-0.01617758,0.00706767,0.1
 2664620,0.11025769,-0.24822228,0.07796396,-0.00083544,0.00125811,-0.00
 115954,-0.00137170,0.00125811,-0.00040114,0.01617758,-0.02438643,0.011
 43928,-0.12422814,0.27009250,-0.04501251,0.07796396,-0.08907902,-0.019
 14395,0.03315829,-0.01132299,0.00637287,-0.01184042,0.00480869,0.00706
 767,-0.01143928,0.00480869,0.05071593,-0.08784256,0.09078463\\0.,0.,0.
 ,0.,0.,0.00000002,0.00000002,0.,0.,-0.00000001,-0.00000002,0.,-0.00000
 001,0.00000002,0.\\\@


 E PUR SI MUOVE    -- GALILEO GALILEI
 Job cpu time:  0 days  0 hours  0 minutes  2.0 seconds.
 File lengths (MBytes):  RWF=      5 Int=      0 D2E=      0 Chk=      1 Scr=      1
 Normal termination of Gaussian 09 at Sat Aug 17 14:54:16 2024.
