 Entering Gaussian System, Link 0=/programs/64bit/g09/g09-gfortran/bin/g09
 Input=ch4_cc-pVTZ.com
 Output=ch4_cc-pVTZ.log
 Initial command:
 /programs/64bit/g09/g09-gfortran/bin/l1.exe /home/ospite/Desktop/MMfP/Project6/CH4/g09/HF/Gau-19781.inp -scrdir=/home/ospite/Desktop/MMfP/Project6/CH4/g09/HF/
 Entering Link 1 = /programs/64bit/g09/g09-gfortran/bin/l1.exe PID=     19782.
  
 Copyright (c) 1988,1990,1992,1993,1995,1998,2003,2009, Gaussian, Inc.
                  All Rights Reserved.
  
 This is part of the Gaussian(R) 09 program.  It is based on
 the Gaussian(R) 03 system (copyright 2003, Gaussian, Inc.),
 the Gaussian(R) 98 system (copyright 1998, Gaussian, Inc.),
 the Gaussian(R) 94 system (copyright 1995, Gaussian, Inc.),
 the Gaussian 92(TM) system (copyright 1992, Gaussian, Inc.),
 the Gaussian 90(TM) system (copyright 1990, Gaussian, Inc.),
 the Gaussian 88(TM) system (copyright 1988, Gaussian, Inc.),
 the Gaussian 86(TM) system (copyright 1986, Carnegie Mellon
 University), and the Gaussian 82(TM) system (copyright 1983,
 Carnegie Mellon University). Gaussian is a federally registered
 trademark of Gaussian, Inc.
  
 This software contains proprietary and confidential information,
 including trade secrets, belonging to Gaussian, Inc.
  
 This software is provided under written license and may be
 used, copied, transmitted, or stored only in accord with that
 written license.
  
 The following legend is applicable only to US Government
 contracts under FAR:
  
                    RESTRICTED RIGHTS LEGEND
  
 Use, reproduction and disclosure by the US Government is
 subject to restrictions as set forth in subparagraphs (a)
 and (c) of the Commercial Computer Software - Restricted
 Rights clause in FAR 52.227-19.
  
 Gaussian, Inc.
 340 Quinnipiac St., Bldg. 40, Wallingford CT 06492
  
  
 ---------------------------------------------------------------
 Warning -- This program may not be used in any manner that
 competes with the business of Gaussian, Inc. or will provide
 assistance to any competitor of Gaussian, Inc.  The licensee
 of this program is prohibited from giving any competitor of
 Gaussian, Inc. access to this program.  By using this program,
 the user acknowledges that Gaussian, Inc. is engaged in the
 business of creating and licensing software in the field of
 computational chemistry and represents and warrants to the
 licensee that it is not a competitor of Gaussian, Inc. and that
 it will not use this program in any manner prohibited above.
 ---------------------------------------------------------------
  

 Cite this work as:
 Gaussian 09, Revision A.02,
 M. J. Frisch, G. W. Trucks, H. B. Schlegel, G. E. Scuseria, 
 M. A. Robb, J. R. Cheeseman, G. Scalmani, V. Barone, B. Mennucci, 
 G. A. Petersson, H. Nakatsuji, M. Caricato, X. Li, H. P. Hratchian, 
 A. F. Izmaylov, J. Bloino, G. Zheng, J. L. Sonnenberg, M. Hada, 
 M. Ehara, K. Toyota, R. Fukuda, J. Hasegawa, M. Ishida, T. Nakajima, 
 Y. Honda, O. Kitao, H. Nakai, T. Vreven, J. A. Montgomery, Jr., 
 J. E. Peralta, F. Ogliaro, M. Bearpark, J. J. Heyd, E. Brothers, 
 K. N. Kudin, V. N. Staroverov, R. Kobayashi, J. Normand, 
 K. Raghavachari, A. Rendell, J. C. Burant, S. S. Iyengar, J. Tomasi, 
 M. Cossi, N. Rega, J. M. Millam, M. Klene, J. E. Knox, J. B. Cross, 
 V. Bakken, C. Adamo, J. Jaramillo, R. Gomperts, R. E. Stratmann, 
 O. Yazyev, A. J. Austin, R. Cammi, C. Pomelli, J. W. Ochterski, 
 R. L. Martin, K. Morokuma, V. G. Zakrzewski, G. A. Voth, 
 P. Salvador, J. J. Dannenberg, S. Dapprich, A. D. Daniels, 
 O. Farkas, J. B. Foresman, J. V. Ortiz, J. Cioslowski, 
 and D. J. Fox, Gaussian, Inc., Wallingford CT, 2009.
 
 ******************************************
 Gaussian 09:  EM64L-G09RevA.02 11-Jun-2009
                18-Aug-2024 
 ******************************************
 %mem=100MB
 ---------------------------------------------------------------
 #p hf/cc-pVTZ opt freq symmetry=(follow,pg=Td) pop=full gfinput
 ---------------------------------------------------------------
 1/18=20,19=15,38=1/1,3;
 2/9=110,12=2,17=6,18=5,19=2314885530818462804,40=1/2;
 3/5=16,6=1,11=9,16=1,24=10,25=1,30=1,71=1/1,2,3;
 4//1;
 5/5=2,38=5/2;
 6/7=3,28=1/1;
 7//1,2,3,16;
 1/18=20,19=15/3(2);
 2/9=110,15=5,19=2314885530818462804/2;
 99//99;
 2/9=110,15=5,19=2314885530818462804/2;
 3/5=16,6=1,11=9,16=1,25=1,30=1,71=1/1,2,3;
 4/5=5,16=3/1;
 5/5=2,38=5/2;
 7//1,2,3,16;
 1/18=20,19=15/3(-5);
 2/9=110,15=5,19=2314885530818462804/2;
 6/7=3,19=2,28=1/1;
 99/9=1/99;
 Leave Link    1 at Sun Aug 18 00:44:51 2024, MaxMem=   13107200 cpu:       0.1
 (Enter /programs/64bit/g09/g09-gfortran/bin/l101.exe)
 ------------------------------------------------------
 methane with imposed symmetry Td and cc-pVTZ basis set
 ------------------------------------------------------
 Symbolic Z-matrix:
 Charge =  0 Multiplicity = 1
 C1
 H2                   1    d
 H3                   1    d        2    a
 H4                   1    d        2    a        3    t        0
 H5                   1    d        2    a        3    -t       0
       Variables:
  d                     1.09                     
  a                   109.471                    
  t                   120.                       
 
     3 tetrahedral angles replaced.
 NAtoms=      5 NQM=      5 NQMF=      0 NMic=      0 NMicF=      0 NTot=      5.
                    Isotopes and Nuclear Properties:
 (Nuclear quadrupole moments (NQMom) in fm**2, nuclear magnetic moments (NMagM)
  in nuclear magnetons)

  Atom         1           2           3           4           5
 IAtWgt=          12           1           1           1           1
 AtmWgt=  12.0000000   1.0078250   1.0078250   1.0078250   1.0078250
 NucSpn=           0           1           1           1           1
 AtZEff=   0.0000000   0.0000000   0.0000000   0.0000000   0.0000000
 NQMom=    0.0000000   0.0000000   0.0000000   0.0000000   0.0000000
 NMagM=    0.0000000   2.7928460   2.7928460   2.7928460   2.7928460
 Leave Link  101 at Sun Aug 18 00:44:51 2024, MaxMem=   13107200 cpu:       0.1
 (Enter /programs/64bit/g09/g09-gfortran/bin/l103.exe)

 GradGradGradGradGradGradGradGradGradGradGradGradGradGradGradGradGradGrad
 Berny optimization.
 Initialization pass.
                           ----------------------------
                           !    Initial Parameters    !
                           ! (Angstroms and Degrees)  !
 --------------------------                            --------------------------
 ! Name  Definition              Value          Derivative Info.                !
 --------------------------------------------------------------------------------
 ! R1    R(1,2)                  1.09           estimate D2E/DX2                !
 ! R2    R(1,3)                  1.09           estimate D2E/DX2                !
 ! R3    R(1,4)                  1.09           estimate D2E/DX2                !
 ! R4    R(1,5)                  1.09           estimate D2E/DX2                !
 ! A1    A(2,1,3)              109.4712         estimate D2E/DX2                !
 ! A2    A(2,1,4)              109.4712         estimate D2E/DX2                !
 ! A3    A(2,1,5)              109.4712         estimate D2E/DX2                !
 ! A4    A(3,1,4)              109.4712         estimate D2E/DX2                !
 ! A5    A(3,1,5)              109.4712         estimate D2E/DX2                !
 ! A6    A(4,1,5)              109.4712         estimate D2E/DX2                !
 ! D1    D(2,1,4,3)           -120.0            estimate D2E/DX2                !
 ! D2    D(2,1,5,3)            120.0            estimate D2E/DX2                !
 ! D3    D(2,1,5,4)           -120.0            estimate D2E/DX2                !
 ! D4    D(3,1,5,4)            120.0            estimate D2E/DX2                !
 --------------------------------------------------------------------------------
 Trust Radius=3.00D-01 FncErr=1.00D-07 GrdErr=1.00D-07
 Number of steps in this run=  24 maximum allowed number of steps= 100.
 GradGradGradGradGradGradGradGradGradGradGradGradGradGradGradGradGradGrad

 Leave Link  103 at Sun Aug 18 00:44:51 2024, MaxMem=   13107200 cpu:       0.0
 (Enter /programs/64bit/g09/g09-gfortran/bin/l202.exe)
                          Input orientation:                          
 ---------------------------------------------------------------------
 Center     Atomic      Atomic             Coordinates (Angstroms)
 Number     Number       Type             X           Y           Z
 ---------------------------------------------------------------------
      1          6           0        0.000000    0.000000    0.000000
      2          1           0        0.000000    0.000000    1.090000
      3          1           0        1.027662    0.000000   -0.363333
      4          1           0       -0.513831   -0.889981   -0.363333
      5          1           0       -0.513831    0.889981   -0.363333
 ---------------------------------------------------------------------
                    Distance matrix (angstroms):
                    1          2          3          4          5
     1  C    0.000000
     2  H    1.090000   0.000000
     3  H    1.090000   1.779963   0.000000
     4  H    1.090000   1.779963   1.779963   0.000000
     5  H    1.090000   1.779963   1.779963   1.779963   0.000000
 Symm:  InNGrp=TD   InAxis=0.
 Stoichiometry    CH4
 Framework group  TD[O(C),4C3(H)]
 Deg. of freedom     1
 Full point group                 TD      NOp  24
 Largest Abelian subgroup         D2      NOp   4
 Largest concise Abelian subgroup D2      NOp   4
                         Standard orientation:                         
 ---------------------------------------------------------------------
 Center     Atomic      Atomic             Coordinates (Angstroms)
 Number     Number       Type             X           Y           Z
 ---------------------------------------------------------------------
      1          6           0        0.000000    0.000000    0.000000
      2          1           0        0.629312    0.629312    0.629312
      3          1           0       -0.629312   -0.629312    0.629312
      4          1           0       -0.629312    0.629312   -0.629312
      5          1           0        0.629312   -0.629312   -0.629312
 ---------------------------------------------------------------------
 Rotational constants (GHZ):    158.2742720    158.2742720    158.2742720
 Leave Link  202 at Sun Aug 18 00:44:51 2024, MaxMem=   13107200 cpu:       0.0
 (Enter /programs/64bit/g09/g09-gfortran/bin/l301.exe)
 Standard basis: CC-pVTZ (5D, 7F)
 Ernie: Thresh=  0.10000D-02 Tol=  0.10000D-05 Strict=F.
 Ernie:  3 primitive shells out of 58 were deleted.
 AO basis set in the form of general basis input (Overlap normalization):
      1 0
 S   7 1.00       0.000000000000
      0.8236000000D+04  0.5419783203D-03
      0.1235000000D+04  0.4192873817D-02
      0.2808000000D+03  0.2152216205D-01
      0.7927000000D+02  0.8353432195D-01
      0.2559000000D+02  0.2395828457D+00
      0.8997000000D+01  0.4428528419D+00
      0.3319000000D+01  0.3517995618D+00
 S   6 1.00       0.000000000000
      0.2808000000D+03 -0.5949224937D-04
      0.7927000000D+02 -0.1148158310D-02
      0.2559000000D+02 -0.1001913745D-01
      0.8997000000D+01 -0.6121949230D-01
      0.3319000000D+01 -0.1732698541D+00
      0.3643000000D+00  0.1072915192D+01
 S   1 1.00       0.000000000000
      0.9059000000D+00  0.1000000000D+01
 S   1 1.00       0.000000000000
      0.1285000000D+00  0.1000000000D+01
 P   3 1.00       0.000000000000
      0.1871000000D+02  0.3942638716D-01
      0.4133000000D+01  0.2440889849D+00
      0.1200000000D+01  0.8154920089D+00
 P   1 1.00       0.000000000000
      0.3827000000D+00  0.1000000000D+01
 P   1 1.00       0.000000000000
      0.1209000000D+00  0.1000000000D+01
 D   1 1.00       0.000000000000
      0.1097000000D+01  0.1000000000D+01
 D   1 1.00       0.000000000000
      0.3180000000D+00  0.1000000000D+01
 F   1 1.00       0.000000000000
      0.7610000000D+00  0.1000000000D+01
 ****
      2 0
 S   3 1.00       0.000000000000
      0.3387000000D+02  0.2549486323D-01
      0.5095000000D+01  0.1903627659D+00
      0.1159000000D+01  0.8521620222D+00
 S   1 1.00       0.000000000000
      0.3258000000D+00  0.1000000000D+01
 S   1 1.00       0.000000000000
      0.1027000000D+00  0.1000000000D+01
 P   1 1.00       0.000000000000
      0.1407000000D+01  0.1000000000D+01
 P   1 1.00       0.000000000000
      0.3880000000D+00  0.1000000000D+01
 D   1 1.00       0.000000000000
      0.1057000000D+01  0.1000000000D+01
 ****
      3 0
 S   3 1.00       0.000000000000
      0.3387000000D+02  0.2549486323D-01
      0.5095000000D+01  0.1903627659D+00
      0.1159000000D+01  0.8521620222D+00
 S   1 1.00       0.000000000000
      0.3258000000D+00  0.1000000000D+01
 S   1 1.00       0.000000000000
      0.1027000000D+00  0.1000000000D+01
 P   1 1.00       0.000000000000
      0.1407000000D+01  0.1000000000D+01
 P   1 1.00       0.000000000000
      0.3880000000D+00  0.1000000000D+01
 D   1 1.00       0.000000000000
      0.1057000000D+01  0.1000000000D+01
 ****
      4 0
 S   3 1.00       0.000000000000
      0.3387000000D+02  0.2549486323D-01
      0.5095000000D+01  0.1903627659D+00
      0.1159000000D+01  0.8521620222D+00
 S   1 1.00       0.000000000000
      0.3258000000D+00  0.1000000000D+01
 S   1 1.00       0.000000000000
      0.1027000000D+00  0.1000000000D+01
 P   1 1.00       0.000000000000
      0.1407000000D+01  0.1000000000D+01
 P   1 1.00       0.000000000000
      0.3880000000D+00  0.1000000000D+01
 D   1 1.00       0.000000000000
      0.1057000000D+01  0.1000000000D+01
 ****
      5 0
 S   3 1.00       0.000000000000
      0.3387000000D+02  0.2549486323D-01
      0.5095000000D+01  0.1903627659D+00
      0.1159000000D+01  0.8521620222D+00
 S   1 1.00       0.000000000000
      0.3258000000D+00  0.1000000000D+01
 S   1 1.00       0.000000000000
      0.1027000000D+00  0.1000000000D+01
 P   1 1.00       0.000000000000
      0.1407000000D+01  0.1000000000D+01
 P   1 1.00       0.000000000000
      0.3880000000D+00  0.1000000000D+01
 D   1 1.00       0.000000000000
      0.1057000000D+01  0.1000000000D+01
 ****

 There are    23 symmetry adapted basis functions of A   symmetry.
 There are    21 symmetry adapted basis functions of B1  symmetry.
 There are    21 symmetry adapted basis functions of B2  symmetry.
 There are    21 symmetry adapted basis functions of B3  symmetry.
 Integral buffers will be    131072 words long.
 Raffenetti 1 integral format.
 Two-electron integral symmetry is turned on.
    86 basis functions,   120 primitive gaussians,    95 cartesian basis functions
     5 alpha electrons        5 beta electrons
       nuclear repulsion energy        13.4353891954 Hartrees.
 IExCor=    0 DFT=F Ex=HF Corr=None ExCW=0 ScaHFX=  1.000000
 ScaDFX=  1.000000  1.000000  1.000000  1.000000 ScalE2=  1.000000  1.000000
 IRadAn=      0 IRanWt=     -1 IRanGd=            0 ICorTp=0
 NAtoms=    5 NActive=    5 NUniq=    2 SFac= 3.00D+00 NAtFMM=   80 NAOKFM=F Big=F
 Leave Link  301 at Sun Aug 18 00:44:51 2024, MaxMem=   13107200 cpu:       0.1
 (Enter /programs/64bit/g09/g09-gfortran/bin/l302.exe)
 NPDir=0 NMtPBC=     1 NCelOv=     1 NCel=       1 NClECP=     1 NCelD=      1
         NCelK=      1 NCelE2=     1 NClLst=     1 CellRange=     0.0.
 One-electron integrals computed using PRISM.
 One-electron integral symmetry used in STVInt
 NBasis=    86 RedAO= T  NBF=    23    21    21    21
 NBsUse=    86 1.00D-06 NBFU=    23    21    21    21
 Leave Link  302 at Sun Aug 18 00:44:52 2024, MaxMem=   13107200 cpu:       0.2
 (Enter /programs/64bit/g09/g09-gfortran/bin/l303.exe)
 DipDrv:  MaxL=1.
 Leave Link  303 at Sun Aug 18 00:44:52 2024, MaxMem=   13107200 cpu:       0.0
 (Enter /programs/64bit/g09/g09-gfortran/bin/l401.exe)
 Harris functional with IExCor=  205 diagonalized for initial guess.
 ExpMin= 1.03D-01 ExpMax= 8.24D+03 ExpMxC= 2.81D+02 IAcc=1 IRadAn=         1 AccDes= 0.00D+00
 HarFok:  IExCor=  205 AccDes= 0.00D+00 IRadAn=         1 IDoV= 1
 ScaDFX=  1.000000  1.000000  1.000000  1.000000
 FoFCou: FMM=F IPFlag=           0 FMFlag=      100000 FMFlg1=           0
         NFxFlg=           0 DoJE=T BraDBF=F KetDBF=T FulRan=T
         Omega=  0.000000  0.000000  1.000000  0.000000  0.000000 ICntrl=     500 IOpCl=  0
         NMat0=    1 NMatS0=    1 NMatT0=    0 NMatD0=    1 NMtDS0=    0 NMtDT0=    0
         I1Cent=           4 NGrid=           0.
 Petite list used in FoFCou.
 Harris En= -40.4005663854564    
 Initial guess orbital symmetries:
       Occupied  (A1) (A1) (T2) (T2) (T2)
       Virtual   (A1) (T2) (T2) (T2) (T2) (T2) (T2) (T2) (T2) (T2)
                 (A1) (E) (E) (A1) (T1) (T1) (T1) (T2) (T2) (T2)
                 (T2) (T2) (T2) (T2) (T2) (T2) (E) (E) (A1) (T2)
                 (T2) (T2) (A1) (T2) (T2) (T2) (E) (E) (T1) (T1)
                 (T1) (T2) (T2) (T2) (T1) (T1) (T1) (T2) (T2) (T2)
                 (E) (E) (A1) (T2) (T2) (T2) (E) (E) (T1) (T1)
                 (T1) (T2) (T2) (T2) (A1) (T2) (T2) (T2) (T2) (T2)
                 (T2) (T1) (T1) (T1) (A1) (E) (E) (T2) (T2) (T2)
                 (A1)
 The electronic state of the initial guess is 1-A1.
 Leave Link  401 at Sun Aug 18 00:44:52 2024, MaxMem=   13107200 cpu:       0.5
 (Enter /programs/64bit/g09/g09-gfortran/bin/l502.exe)
 Closed shell SCF:
 Requested convergence on RMS density matrix=1.00D-08 within 128 cycles.
 Requested convergence on MAX density matrix=1.00D-06.
 Requested convergence on             energy=1.00D-06.
 No special actions if energy rises.
 Using DIIS extrapolation, IDIIS=  1040.
 Integral symmetry usage will be decided dynamically.
 Keep R1 ints in memory in canonical form, NReq=12386625.
 IEnd=       47531 IEndB=       47531 NGot=    13107200 MDV=     2686322
 LenX=     2686322 LenY=     2676856
 Symmetry not used in FoFDir.
 MinBra= 0 MaxBra= 3 Meth= 1.
 IRaf=       0 NMat=   1 IRICut=       1 DoRegI=T DoRafI=F ISym2E= 0 JSym2E=0.

 Cycle   1  Pass 1  IDiag  1:
 E= -40.0747164190244    
 DIIS: error= 8.48D-02 at cycle   1 NSaved=   1.
 NSaved= 1 IEnMin= 1 EnMin= -40.0747164190244     IErMin= 1 ErrMin= 8.48D-02
 ErrMax= 8.48D-02 EMaxC= 1.00D-01 BMatC= 1.76D-01 BMatP= 1.76D-01
 IDIUse=3 WtCom= 1.52D-01 WtEn= 8.48D-01
 Coeff-Com:  0.100D+01
 Coeff-En:   0.100D+01
 Coeff:      0.100D+01
 Gap=     0.605 Goal=   None    Shift=    0.000
 GapD=    0.605 DampG=2.000 DampE=0.500 DampFc=1.0000 IDamp=-1.
 RMSDP=2.89D-03 MaxDP=5.95D-02              OVMax= 1.51D-01

 Cycle   2  Pass 1  IDiag  1:
 E= -40.1908874691276     Delta-E=       -0.116171050103 Rises=F Damp=F
 DIIS: error= 3.39D-02 at cycle   2 NSaved=   2.
 NSaved= 2 IEnMin= 2 EnMin= -40.1908874691276     IErMin= 2 ErrMin= 3.39D-02
 ErrMax= 3.39D-02 EMaxC= 1.00D-01 BMatC= 2.51D-02 BMatP= 1.76D-01
 IDIUse=3 WtCom= 6.61D-01 WtEn= 3.39D-01
 Coeff-Com:  0.239D+00 0.761D+00
 Coeff-En:   0.000D+00 0.100D+01
 Coeff:      0.158D+00 0.842D+00
 Gap=     0.706 Goal=   None    Shift=    0.000
 RMSDP=9.91D-04 MaxDP=2.95D-02 DE=-1.16D-01 OVMax= 5.02D-02

 Cycle   3  Pass 1  IDiag  1:
 E= -40.2123967169859     Delta-E=       -0.021509247858 Rises=F Damp=F
 DIIS: error= 6.58D-03 at cycle   3 NSaved=   3.
 NSaved= 3 IEnMin= 3 EnMin= -40.2123967169859     IErMin= 3 ErrMin= 6.58D-03
 ErrMax= 6.58D-03 EMaxC= 1.00D-01 BMatC= 8.72D-04 BMatP= 2.51D-02
 IDIUse=3 WtCom= 9.34D-01 WtEn= 6.58D-02
 Coeff-Com: -0.285D-01 0.106D+00 0.923D+00
 Coeff-En:   0.000D+00 0.000D+00 0.100D+01
 Coeff:     -0.266D-01 0.989D-01 0.928D+00
 Gap=     0.687 Goal=   None    Shift=    0.000
 RMSDP=1.87D-04 MaxDP=2.96D-03 DE=-2.15D-02 OVMax= 9.43D-03

 Cycle   4  Pass 1  IDiag  1:
 E= -40.2132860998796     Delta-E=       -0.000889382894 Rises=F Damp=F
 DIIS: error= 5.89D-04 at cycle   4 NSaved=   4.
 NSaved= 4 IEnMin= 4 EnMin= -40.2132860998796     IErMin= 4 ErrMin= 5.89D-04
 ErrMax= 5.89D-04 EMaxC= 1.00D-01 BMatC= 6.68D-06 BMatP= 8.72D-04
 IDIUse=3 WtCom= 9.94D-01 WtEn= 5.89D-03
 Coeff-Com:  0.713D-02-0.469D-01-0.287D+00 0.133D+01
 Coeff-En:   0.000D+00 0.000D+00 0.000D+00 0.100D+01
 Coeff:      0.709D-02-0.467D-01-0.286D+00 0.133D+01
 Gap=     0.688 Goal=   None    Shift=    0.000
 RMSDP=4.79D-05 MaxDP=7.23D-04 DE=-8.89D-04 OVMax= 1.57D-03

 Cycle   5  Pass 1  IDiag  1:
 E= -40.2133006817825     Delta-E=       -0.000014581903 Rises=F Damp=F
 DIIS: error= 6.22D-05 at cycle   5 NSaved=   5.
 NSaved= 5 IEnMin= 5 EnMin= -40.2133006817825     IErMin= 5 ErrMin= 6.22D-05
 ErrMax= 6.22D-05 EMaxC= 1.00D-01 BMatC= 1.16D-07 BMatP= 6.68D-06
 IDIUse=1 WtCom= 1.00D+00 WtEn= 0.00D+00
 Coeff-Com: -0.517D-03 0.517D-02 0.316D-01-0.260D+00 0.122D+01
 Coeff:     -0.517D-03 0.517D-02 0.316D-01-0.260D+00 0.122D+01
 Gap=     0.688 Goal=   None    Shift=    0.000
 RMSDP=9.36D-06 MaxDP=1.12D-04 DE=-1.46D-05 OVMax= 2.39D-04

 Cycle   6  Pass 1  IDiag  1:
 E= -40.2133009491180     Delta-E=       -0.000000267335 Rises=F Damp=F
 DIIS: error= 2.92D-06 at cycle   6 NSaved=   6.
 NSaved= 6 IEnMin= 6 EnMin= -40.2133009491180     IErMin= 6 ErrMin= 2.92D-06
 ErrMax= 2.92D-06 EMaxC= 1.00D-01 BMatC= 4.00D-10 BMatP= 1.16D-07
 IDIUse=1 WtCom= 1.00D+00 WtEn= 0.00D+00
 Coeff-Com:  0.806D-04-0.891D-03-0.551D-02 0.508D-01-0.280D+00 0.124D+01
 Coeff:      0.806D-04-0.891D-03-0.551D-02 0.508D-01-0.280D+00 0.124D+01
 Gap=     0.688 Goal=   None    Shift=    0.000
 RMSDP=1.00D-06 MaxDP=1.27D-05 DE=-2.67D-07 OVMax= 1.45D-05

 Cycle   7  Pass 1  IDiag  1:
 E= -40.2133009500828     Delta-E=       -0.000000000965 Rises=F Damp=F
 DIIS: error= 1.77D-07 at cycle   7 NSaved=   7.
 NSaved= 7 IEnMin= 7 EnMin= -40.2133009500828     IErMin= 7 ErrMin= 1.77D-07
 ErrMax= 1.77D-07 EMaxC= 1.00D-01 BMatC= 1.49D-12 BMatP= 4.00D-10
 IDIUse=1 WtCom= 1.00D+00 WtEn= 0.00D+00
 Coeff-Com: -0.623D-05 0.744D-04 0.478D-03-0.488D-02 0.284D-01-0.157D+00
 Coeff-Com:  0.113D+01
 Coeff:     -0.623D-05 0.744D-04 0.478D-03-0.488D-02 0.284D-01-0.157D+00
 Coeff:      0.113D+01
 Gap=     0.688 Goal=   None    Shift=    0.000
 RMSDP=7.77D-08 MaxDP=1.56D-06 DE=-9.65D-10 OVMax= 7.38D-07

 Cycle   8  Pass 1  IDiag  1:
 E= -40.2133009500855     Delta-E=       -0.000000000003 Rises=F Damp=F
 DIIS: error= 1.57D-08 at cycle   8 NSaved=   8.
 NSaved= 8 IEnMin= 8 EnMin= -40.2133009500855     IErMin= 8 ErrMin= 1.57D-08
 ErrMax= 1.57D-08 EMaxC= 1.00D-01 BMatC= 7.49D-15 BMatP= 1.49D-12
 IDIUse=1 WtCom= 1.00D+00 WtEn= 0.00D+00
 Coeff-Com:  0.302D-06-0.400D-05-0.282D-04 0.322D-03-0.196D-02 0.119D-01
 Coeff-Com: -0.132D+00 0.112D+01
 Coeff:      0.302D-06-0.400D-05-0.282D-04 0.322D-03-0.196D-02 0.119D-01
 Coeff:     -0.132D+00 0.112D+01
 Gap=     0.688 Goal=   None    Shift=    0.000
 RMSDP=5.37D-09 MaxDP=1.01D-07 DE=-2.71D-12 OVMax= 5.38D-08

 SCF Done:  E(RHF) =  -40.2133009501     A.U. after    8 cycles
             Convg  =    0.5372D-08             -V/T =  2.0016
 KE= 4.014920760610D+01 PE=-1.198800415329D+02 EE= 2.608214378133D+01
 Leave Link  502 at Sun Aug 18 00:44:54 2024, MaxMem=   13107200 cpu:       1.7
 (Enter /programs/64bit/g09/g09-gfortran/bin/l601.exe)
 Copying SCF densities to generalized density rwf, IOpCl= 0 IROHF=0.

 **********************************************************************

            Population analysis using the SCF density.

 **********************************************************************

 Orbital symmetries:
       Occupied  (A1) (A1) (T2) (T2) (T2)
       Virtual   (A1) (T2) (T2) (T2) (T2) (T2) (T2) (A1) (T2) (T2)
                 (T2) (E) (E) (A1) (T1) (T1) (T1) (T2) (T2) (T2)
                 (T2) (T2) (T2) (T2) (T2) (T2) (E) (E) (A1) (T2)
                 (T2) (T2) (A1) (T2) (T2) (T2) (E) (E) (T1) (T1)
                 (T1) (T2) (T2) (T2) (T1) (T1) (T1) (T2) (T2) (T2)
                 (E) (E) (A1) (T2) (T2) (T2) (E) (E) (T1) (T1)
                 (T1) (T2) (T2) (T2) (A1) (T2) (T2) (T2) (T2) (T2)
                 (T2) (T1) (T1) (T1) (A1) (E) (E) (T2) (T2) (T2)
                 (A1)
 The electronic state is 1-A1.
 Alpha  occ. eigenvalues --  -11.20726  -0.94242  -0.54453  -0.54453  -0.54453
 Alpha virt. eigenvalues --    0.14340   0.22930   0.22930   0.22930   0.36441
 Alpha virt. eigenvalues --    0.36441   0.36441   0.64125   0.64722   0.64722
 Alpha virt. eigenvalues --    0.64722   0.68427   0.68427   0.75648   1.07519
 Alpha virt. eigenvalues --    1.07519   1.07519   1.15840   1.15840   1.15840
 Alpha virt. eigenvalues --    1.31888   1.31888   1.31888   1.53474   1.53474
 Alpha virt. eigenvalues --    1.53474   1.59847   1.59847   1.80524   2.42495
 Alpha virt. eigenvalues --    2.42495   2.42495   2.56627   2.98971   2.98971
 Alpha virt. eigenvalues --    2.98971   3.13701   3.13701   3.13868   3.13868
 Alpha virt. eigenvalues --    3.13868   3.30800   3.30800   3.30800   3.61760
 Alpha virt. eigenvalues --    3.61760   3.61760   3.73708   3.73708   3.73708
 Alpha virt. eigenvalues --    3.79982   3.79982   3.87740   4.09630   4.09630
 Alpha virt. eigenvalues --    4.09630   4.12338   4.12338   4.38499   4.38499
 Alpha virt. eigenvalues --    4.38499   4.53428   4.53428   4.53428   4.83385
 Alpha virt. eigenvalues --    5.05497   5.05497   5.05497   5.48505   5.48505
 Alpha virt. eigenvalues --    5.48505   5.50757   5.50757   5.50757   5.56546
 Alpha virt. eigenvalues --    5.63726   5.63726   6.21233   6.21233   6.21233
 Alpha virt. eigenvalues --   14.46723
     Molecular Orbital Coefficients:
                           1         2         3         4         5
                        (A1)--O   (A1)--O   (T2)--O   (T2)--O   (T2)--O
     Eigenvalues --   -11.20726  -0.94242  -0.54453  -0.54453  -0.54453
   1 1   C  1S          0.97872  -0.17786   0.00000   0.00000   0.00000
   2        2S         -0.00652   0.43391   0.00000   0.00000   0.00000
   3        3S          0.04135   0.08898   0.00000   0.00000   0.00000
   4        4S          0.00600   0.19642   0.00000   0.00000   0.00000
   5        5PX         0.00000   0.00000   0.00000   0.23506   0.00000
   6        5PY         0.00000   0.00000   0.23506   0.00000   0.00000
   7        5PZ         0.00000   0.00000   0.00000   0.00000   0.23506
   8        6PX         0.00000   0.00000   0.00000   0.28546   0.00000
   9        6PY         0.00000   0.00000   0.28546   0.00000   0.00000
  10        6PZ         0.00000   0.00000   0.00000   0.00000   0.28546
  11        7PX         0.00000   0.00000   0.00000   0.13791   0.00000
  12        7PY         0.00000   0.00000   0.13791   0.00000   0.00000
  13        7PZ         0.00000   0.00000   0.00000   0.00000   0.13791
  14        8D 0       -0.00000   0.00000   0.00000   0.00000   0.00000
  15        8D+1        0.00000   0.00000   0.01789   0.00000   0.00000
  16        8D-1        0.00000   0.00000   0.00000   0.01789   0.00000
  17        8D+2       -0.00000   0.00000   0.00000   0.00000   0.00000
  18        8D-2        0.00000   0.00000   0.00000   0.00000   0.01789
  19        9D 0       -0.00000  -0.00000   0.00000   0.00000   0.00000
  20        9D+1        0.00000   0.00000   0.02028   0.00000   0.00000
  21        9D-1        0.00000   0.00000   0.00000   0.02028   0.00000
  22        9D+2       -0.00000  -0.00000   0.00000   0.00000   0.00000
  23        9D-2        0.00000   0.00000   0.00000   0.00000   0.02028
  24       10F 0        0.00000   0.00000   0.00000   0.00000  -0.00059
  25       10F+1        0.00000   0.00000   0.00000   0.00036   0.00000
  26       10F-1        0.00000   0.00000   0.00036   0.00000   0.00000
  27       10F+2        0.00000   0.00000   0.00000   0.00000  -0.00000
  28       10F-2        0.00092   0.00952   0.00000   0.00000   0.00000
  29       10F+3        0.00000   0.00000   0.00000  -0.00046   0.00000
  30       10F-3        0.00000   0.00000   0.00046   0.00000   0.00000
  31 2   H  1S          0.00014   0.08196   0.10066   0.10066   0.10066
  32        2S         -0.00064   0.08992   0.16093   0.16093   0.16093
  33        3S         -0.00074   0.01230   0.07208   0.07208   0.07208
  34        4PX         0.00019  -0.00452  -0.00645  -0.00165  -0.00645
  35        4PY         0.00019  -0.00452  -0.00165  -0.00645  -0.00645
  36        4PZ         0.00019  -0.00452  -0.00645  -0.00645  -0.00165
  37        5PX         0.00018  -0.00131  -0.00977   0.00100  -0.00977
  38        5PY         0.00018  -0.00131   0.00100  -0.00977  -0.00977
  39        5PZ         0.00018  -0.00131  -0.00977  -0.00977   0.00100
  40        6D 0       -0.00000  -0.00000   0.00063   0.00063  -0.00127
  41        6D+1       -0.00016   0.00059   0.00228   0.00104   0.00104
  42        6D-1       -0.00016   0.00059   0.00104   0.00228   0.00104
  43        6D+2       -0.00000  -0.00000   0.00110  -0.00110  -0.00000
  44        6D-2       -0.00016   0.00059   0.00104   0.00104   0.00228
  45 3   H  1S          0.00014   0.08196  -0.10066  -0.10066   0.10066
  46        2S         -0.00064   0.08992  -0.16093  -0.16093   0.16093
  47        3S         -0.00074   0.01230  -0.07208  -0.07208   0.07208
  48        4PX        -0.00019   0.00452  -0.00645  -0.00165   0.00645
  49        4PY        -0.00019   0.00452  -0.00165  -0.00645   0.00645
  50        4PZ         0.00019  -0.00452   0.00645   0.00645  -0.00165
  51        5PX        -0.00018   0.00131  -0.00977   0.00100   0.00977
  52        5PY        -0.00018   0.00131   0.00100  -0.00977   0.00977
  53        5PZ         0.00018  -0.00131   0.00977   0.00977   0.00100
  54        6D 0       -0.00000  -0.00000  -0.00063  -0.00063  -0.00127
  55        6D+1        0.00016  -0.00059   0.00228   0.00104  -0.00104
  56        6D-1        0.00016  -0.00059   0.00104   0.00228  -0.00104
  57        6D+2       -0.00000  -0.00000  -0.00110   0.00110  -0.00000
  58        6D-2       -0.00016   0.00059  -0.00104  -0.00104   0.00228
  59 4   H  1S          0.00014   0.08196   0.10066  -0.10066  -0.10066
  60        2S         -0.00064   0.08992   0.16093  -0.16093  -0.16093
  61        3S         -0.00074   0.01230   0.07208  -0.07208  -0.07208
  62        4PX        -0.00019   0.00452   0.00645  -0.00165  -0.00645
  63        4PY         0.00019  -0.00452  -0.00165   0.00645   0.00645
  64        4PZ        -0.00019   0.00452   0.00645  -0.00645  -0.00165
  65        5PX        -0.00018   0.00131   0.00977   0.00100  -0.00977
  66        5PY         0.00018  -0.00131   0.00100   0.00977   0.00977
  67        5PZ        -0.00018   0.00131   0.00977  -0.00977   0.00100
  68        6D 0       -0.00000  -0.00000   0.00063  -0.00063   0.00127
  69        6D+1       -0.00016   0.00059   0.00228  -0.00104  -0.00104
  70        6D-1        0.00016  -0.00059  -0.00104   0.00228   0.00104
  71        6D+2       -0.00000  -0.00000   0.00110   0.00110   0.00000
  72        6D-2        0.00016  -0.00059  -0.00104   0.00104   0.00228
  73 5   H  1S          0.00014   0.08196  -0.10066   0.10066  -0.10066
  74        2S         -0.00064   0.08992  -0.16093   0.16093  -0.16093
  75        3S         -0.00074   0.01230  -0.07208   0.07208  -0.07208
  76        4PX         0.00019  -0.00452   0.00645  -0.00165   0.00645
  77        4PY        -0.00019   0.00452  -0.00165   0.00645  -0.00645
  78        4PZ        -0.00019   0.00452  -0.00645   0.00645  -0.00165
  79        5PX         0.00018  -0.00131   0.00977   0.00100   0.00977
  80        5PY        -0.00018   0.00131   0.00100   0.00977  -0.00977
  81        5PZ        -0.00018   0.00131  -0.00977   0.00977   0.00100
  82        6D 0       -0.00000  -0.00000  -0.00063   0.00063   0.00127
  83        6D+1        0.00016  -0.00059   0.00228  -0.00104   0.00104
  84        6D-1       -0.00016   0.00059  -0.00104   0.00228  -0.00104
  85        6D+2       -0.00000  -0.00000  -0.00110  -0.00110   0.00000
  86        6D-2        0.00016  -0.00059   0.00104  -0.00104   0.00228
                           6         7         8         9        10
                        (A1)--V   (T2)--V   (T2)--V   (T2)--V   (T2)--V
     Eigenvalues --     0.14340   0.22930   0.22930   0.22930   0.36441
   1 1   C  1S         -0.07060   0.00000   0.00000   0.00000   0.00000
   2        2S          0.27589   0.00000   0.00000   0.00000   0.00000
   3        3S          0.05027   0.00000   0.00000   0.00000   0.00000
   4        4S          3.78185   0.00000   0.00000   0.00000   0.00000
   5        5PX         0.00000   0.00000   0.13161   0.00000   0.00000
   6        5PY         0.00000   0.00000   0.00000   0.13161   0.00000
   7        5PZ         0.00000   0.13161   0.00000   0.00000  -0.08741
   8        6PX         0.00000   0.00000   0.41574   0.00000   0.00000
   9        6PY         0.00000   0.00000   0.00000   0.41574   0.00000
  10        6PZ         0.00000   0.41574   0.00000   0.00000   0.57514
  11        7PX         0.00000   0.00000   1.80788   0.00000   0.00000
  12        7PY         0.00000   0.00000   0.00000   1.80788   0.00000
  13        7PZ         0.00000   1.80788   0.00000   0.00000   2.33595
  14        8D 0        0.00000   0.00000   0.00000   0.00000   0.00000
  15        8D+1        0.00000   0.00000   0.00000  -0.00318   0.00000
  16        8D-1        0.00000   0.00000  -0.00318   0.00000   0.00000
  17        8D+2       -0.00000   0.00000   0.00000   0.00000   0.00000
  18        8D-2        0.00000  -0.00318   0.00000   0.00000  -0.00269
  19        9D 0       -0.00000   0.00000   0.00000   0.00000   0.00000
  20        9D+1        0.00000   0.00000   0.00000   0.15937   0.00000
  21        9D-1        0.00000   0.00000   0.15937   0.00000   0.00000
  22        9D+2        0.00000   0.00000   0.00000   0.00000   0.00000
  23        9D-2        0.00000   0.15937   0.00000   0.00000   0.54986
  24       10F 0        0.00000  -0.00285   0.00000   0.00000  -0.05511
  25       10F+1        0.00000   0.00000   0.00175   0.00000   0.00000
  26       10F-1        0.00000   0.00000   0.00000   0.00175   0.00000
  27       10F+2        0.00000   0.00000   0.00000   0.00000   0.00000
  28       10F-2        0.02854   0.00000   0.00000   0.00000   0.00000
  29       10F+3        0.00000   0.00000  -0.00226   0.00000   0.00000
  30       10F-3        0.00000   0.00000   0.00000   0.00226   0.00000
  31 2   H  1S          0.00585  -0.00940  -0.00940  -0.00940  -0.02449
  32        2S         -0.24422  -0.14802  -0.14802  -0.14802  -1.19494
  33        3S         -1.12036  -1.74109  -1.74109  -1.74109  -0.41344
  34        4PX        -0.00704  -0.01201  -0.00092  -0.01201   0.00565
  35        4PY        -0.00704  -0.01201  -0.01201  -0.00092   0.00565
  36        4PZ        -0.00704  -0.00092  -0.01201  -0.01201   0.02501
  37        5PX         0.09309   0.09659   0.06060   0.09659   0.17522
  38        5PY         0.09309   0.09659   0.09659   0.06060   0.17522
  39        5PZ         0.09309   0.06060   0.09659   0.09659   0.13181
  40        6D 0       -0.00000  -0.00113   0.00057   0.00057  -0.00581
  41        6D+1       -0.00544  -0.00411  -0.00411  -0.00656  -0.01132
  42        6D-1       -0.00544  -0.00411  -0.00656  -0.00411  -0.01132
  43        6D+2        0.00000   0.00000  -0.00098   0.00098   0.00000
  44        6D-2       -0.00544  -0.00656  -0.00411  -0.00411  -0.02139
  45 3   H  1S          0.00585  -0.00940   0.00940   0.00940  -0.02449
  46        2S         -0.24422  -0.14802   0.14802   0.14802  -1.19494
  47        3S         -1.12036  -1.74109   1.74109   1.74109  -0.41344
  48        4PX         0.00704   0.01201  -0.00092  -0.01201  -0.00565
  49        4PY         0.00704   0.01201  -0.01201  -0.00092  -0.00565
  50        4PZ        -0.00704  -0.00092   0.01201   0.01201   0.02501
  51        5PX        -0.09309  -0.09659   0.06060   0.09659  -0.17522
  52        5PY        -0.09309  -0.09659   0.09659   0.06060  -0.17522
  53        5PZ         0.09309   0.06060  -0.09659  -0.09659   0.13181
  54        6D 0       -0.00000  -0.00113  -0.00057  -0.00057  -0.00581
  55        6D+1        0.00544   0.00411  -0.00411  -0.00656   0.01132
  56        6D-1        0.00544   0.00411  -0.00656  -0.00411   0.01132
  57        6D+2        0.00000   0.00000   0.00098  -0.00098   0.00000
  58        6D-2       -0.00544  -0.00656   0.00411   0.00411  -0.02139
  59 4   H  1S          0.00585   0.00940   0.00940  -0.00940   0.02449
  60        2S         -0.24422   0.14802   0.14802  -0.14802   1.19494
  61        3S         -1.12036   1.74109   1.74109  -1.74109   0.41344
  62        4PX         0.00704  -0.01201  -0.00092   0.01201   0.00565
  63        4PY        -0.00704   0.01201   0.01201  -0.00092  -0.00565
  64        4PZ         0.00704  -0.00092  -0.01201   0.01201   0.02501
  65        5PX        -0.09309   0.09659   0.06060  -0.09659   0.17522
  66        5PY         0.09309  -0.09659  -0.09659   0.06060  -0.17522
  67        5PZ        -0.09309   0.06060   0.09659  -0.09659   0.13181
  68        6D 0       -0.00000   0.00113  -0.00057   0.00057   0.00581
  69        6D+1       -0.00544   0.00411   0.00411  -0.00656   0.01132
  70        6D-1        0.00544  -0.00411  -0.00656   0.00411  -0.01132
  71        6D+2        0.00000  -0.00000   0.00098   0.00098  -0.00000
  72        6D-2        0.00544  -0.00656  -0.00411   0.00411  -0.02139
  73 5   H  1S          0.00585   0.00940  -0.00940   0.00940   0.02449
  74        2S         -0.24422   0.14802  -0.14802   0.14802   1.19494
  75        3S         -1.12036   1.74109  -1.74109   1.74109   0.41344
  76        4PX        -0.00704   0.01201  -0.00092   0.01201  -0.00565
  77        4PY         0.00704  -0.01201   0.01201  -0.00092   0.00565
  78        4PZ         0.00704  -0.00092   0.01201  -0.01201   0.02501
  79        5PX         0.09309  -0.09659   0.06060  -0.09659  -0.17522
  80        5PY        -0.09309   0.09659  -0.09659   0.06060   0.17522
  81        5PZ        -0.09309   0.06060  -0.09659   0.09659   0.13181
  82        6D 0       -0.00000   0.00113   0.00057  -0.00057   0.00581
  83        6D+1        0.00544  -0.00411   0.00411  -0.00656  -0.01132
  84        6D-1       -0.00544   0.00411  -0.00656   0.00411   0.01132
  85        6D+2        0.00000  -0.00000  -0.00098  -0.00098  -0.00000
  86        6D-2        0.00544  -0.00656   0.00411  -0.00411  -0.02139
                          11        12        13        14        15
                        (T2)--V   (T2)--V   (A1)--V   (T2)--V   (T2)--V
     Eigenvalues --     0.36441   0.36441   0.64125   0.64722   0.64722
   1 1   C  1S          0.00000   0.00000   0.17084   0.00000   0.00000
   2        2S          0.00000   0.00000  -0.28040   0.00000   0.00000
   3        3S          0.00000   0.00000  -0.15114   0.00000   0.00000
   4        4S          0.00000   0.00000   7.25380   0.00000   0.00000
   5        5PX         0.00000  -0.08741   0.00000   0.00000  -0.29635
   6        5PY        -0.08741   0.00000   0.00000   0.00000   0.00000
   7        5PZ         0.00000   0.00000   0.00000  -0.29635   0.00000
   8        6PX         0.00000   0.57514   0.00000   0.00000   0.55003
   9        6PY         0.57514   0.00000   0.00000   0.00000   0.00000
  10        6PZ         0.00000   0.00000   0.00000   0.55003   0.00000
  11        7PX         0.00000   2.33595   0.00000   0.00000   2.67310
  12        7PY         2.33595   0.00000   0.00000   0.00000   0.00000
  13        7PZ         0.00000   0.00000   0.00000   2.67310   0.00000
  14        8D 0        0.00000   0.00000   0.00000   0.00000   0.00000
  15        8D+1       -0.00269   0.00000   0.00000   0.00000   0.00000
  16        8D-1        0.00000  -0.00269   0.00000   0.00000   0.05330
  17        8D+2        0.00000   0.00000  -0.00000   0.00000   0.00000
  18        8D-2        0.00000   0.00000   0.00000   0.05330   0.00000
  19        9D 0        0.00000   0.00000  -0.00000   0.00000   0.00000
  20        9D+1        0.54986   0.00000   0.00000   0.00000   0.00000
  21        9D-1        0.00000   0.54986   0.00000   0.00000   0.91417
  22        9D+2        0.00000   0.00000   0.00000   0.00000   0.00000
  23        9D-2        0.00000   0.00000   0.00000   0.91417   0.00000
  24       10F 0        0.00000   0.00000   0.00000  -0.04131   0.00000
  25       10F+1        0.00000   0.03375   0.00000   0.00000   0.02530
  26       10F-1        0.03375   0.00000   0.00000   0.00000   0.00000
  27       10F+2        0.00000   0.00000   0.00000   0.00000   0.00000
  28       10F-2        0.00000   0.00000   0.11506   0.00000   0.00000
  29       10F+3        0.00000  -0.04357   0.00000   0.00000  -0.03266
  30       10F-3        0.04357   0.00000   0.00000   0.00000   0.00000
  31 2   H  1S         -0.02449  -0.02449   0.06978   0.07117   0.07117
  32        2S         -1.19494  -1.19494  -0.79841  -0.61363  -0.61363
  33        3S         -0.41344  -0.41344  -1.32318  -1.62952  -1.62952
  34        4PX         0.00565   0.02501   0.00089  -0.00746   0.00769
  35        4PY         0.02501   0.00565   0.00089  -0.00746  -0.00746
  36        4PZ         0.00565   0.00565   0.00089   0.00769  -0.00746
  37        5PX         0.17522   0.13181   0.38261   0.43150   0.21995
  38        5PY         0.13181   0.17522   0.38261   0.43150   0.43150
  39        5PZ         0.17522   0.17522   0.38261   0.21995   0.43150
  40        6D 0        0.00290   0.00290  -0.00000   0.00119  -0.00060
  41        6D+1       -0.02139  -0.01132  -0.02345  -0.01666  -0.01666
  42        6D-1       -0.01132  -0.02139  -0.02345  -0.01666  -0.03015
  43        6D+2        0.00503  -0.00503   0.00000   0.00000   0.00103
  44        6D-2       -0.01132  -0.01132  -0.02345  -0.03015  -0.01666
  45 3   H  1S          0.02449   0.02449   0.06978   0.07117  -0.07117
  46        2S          1.19494   1.19494  -0.79841  -0.61363   0.61363
  47        3S          0.41344   0.41344  -1.32318  -1.62952   1.62952
  48        4PX         0.00565   0.02501  -0.00089   0.00746   0.00769
  49        4PY         0.02501   0.00565  -0.00089   0.00746  -0.00746
  50        4PZ        -0.00565  -0.00565   0.00089   0.00769   0.00746
  51        5PX         0.17522   0.13181  -0.38261  -0.43150   0.21995
  52        5PY         0.13181   0.17522  -0.38261  -0.43150   0.43150
  53        5PZ        -0.17522  -0.17522   0.38261   0.21995  -0.43150
  54        6D 0       -0.00290  -0.00290  -0.00000   0.00119   0.00060
  55        6D+1       -0.02139  -0.01132   0.02345   0.01666  -0.01666
  56        6D-1       -0.01132  -0.02139   0.02345   0.01666  -0.03015
  57        6D+2       -0.00503   0.00503   0.00000   0.00000  -0.00103
  58        6D-2        0.01132   0.01132  -0.02345  -0.03015   0.01666
  59 4   H  1S         -0.02449   0.02449   0.06978  -0.07117  -0.07117
  60        2S         -1.19494   1.19494  -0.79841   0.61363   0.61363
  61        3S         -0.41344   0.41344  -1.32318   1.62952   1.62952
  62        4PX        -0.00565   0.02501  -0.00089  -0.00746   0.00769
  63        4PY         0.02501  -0.00565   0.00089   0.00746   0.00746
  64        4PZ        -0.00565   0.00565  -0.00089   0.00769  -0.00746
  65        5PX        -0.17522   0.13181  -0.38261   0.43150   0.21995
  66        5PY         0.13181  -0.17522   0.38261  -0.43150  -0.43150
  67        5PZ        -0.17522   0.17522  -0.38261   0.21995   0.43150
  68        6D 0        0.00290  -0.00290  -0.00000  -0.00119   0.00060
  69        6D+1       -0.02139   0.01132  -0.02345   0.01666   0.01666
  70        6D-1        0.01132  -0.02139   0.02345  -0.01666  -0.03015
  71        6D+2        0.00503   0.00503   0.00000  -0.00000  -0.00103
  72        6D-2        0.01132  -0.01132   0.02345  -0.03015  -0.01666
  73 5   H  1S          0.02449  -0.02449   0.06978  -0.07117   0.07117
  74        2S          1.19494  -1.19494  -0.79841   0.61363  -0.61363
  75        3S          0.41344  -0.41344  -1.32318   1.62952  -1.62952
  76        4PX        -0.00565   0.02501   0.00089   0.00746   0.00769
  77        4PY         0.02501  -0.00565  -0.00089  -0.00746   0.00746
  78        4PZ         0.00565  -0.00565  -0.00089   0.00769   0.00746
  79        5PX        -0.17522   0.13181   0.38261  -0.43150   0.21995
  80        5PY         0.13181  -0.17522  -0.38261   0.43150  -0.43150
  81        5PZ         0.17522  -0.17522  -0.38261   0.21995  -0.43150
  82        6D 0       -0.00290   0.00290  -0.00000  -0.00119  -0.00060
  83        6D+1       -0.02139   0.01132   0.02345  -0.01666   0.01666
  84        6D-1        0.01132  -0.02139  -0.02345   0.01666  -0.03015
  85        6D+2       -0.00503  -0.00503   0.00000  -0.00000   0.00103
  86        6D-2       -0.01132   0.01132   0.02345  -0.03015   0.01666
                          16        17        18        19        20
                        (T2)--V   (E)--V    (E)--V    (A1)--V   (T1)--V
     Eigenvalues --     0.64722   0.68427   0.68427   0.75648   1.07519
   1 1   C  1S          0.00000   0.00000   0.00000  -0.01834   0.00000
   2        2S          0.00000  -0.00000  -0.00000   0.04920   0.00000
   3        3S          0.00000  -0.00000  -0.00000  -0.13050   0.00000
   4        4S          0.00000   0.00000   0.00000   6.22188   0.00000
   5        5PX         0.00000  -0.00000   0.00000   0.00000   0.00000
   6        5PY        -0.29635  -0.00000   0.00000   0.00000  -0.00000
   7        5PZ         0.00000  -0.00000   0.00000   0.00000   0.00000
   8        6PX         0.00000  -0.00000   0.00000   0.00000   0.00000
   9        6PY         0.55003  -0.00000   0.00000   0.00000  -0.00000
  10        6PZ         0.00000  -0.00000   0.00000   0.00000   0.00000
  11        7PX         0.00000  -0.00000   0.00000   0.00000   0.00000
  12        7PY         2.67310  -0.00000   0.00000   0.00000  -0.00000
  13        7PZ         0.00000  -0.00000   0.00000   0.00000   0.00000
  14        8D 0        0.00000  -0.01112  -0.01098   0.00000   0.00000
  15        8D+1        0.05330  -0.00000   0.00000   0.00000  -0.00000
  16        8D-1        0.00000  -0.00000   0.00000   0.00000   0.00000
  17        8D+2        0.00000  -0.01098   0.01112  -0.00000   0.00000
  18        8D-2        0.00000  -0.00000   0.00000   0.00000   0.00000
  19        9D 0        0.00000  -0.04385  -0.04327  -0.00000   0.00000
  20        9D+1        0.91417  -0.00000   0.00000   0.00000  -0.00000
  21        9D-1        0.00000  -0.00000   0.00000   0.00000   0.00000
  22        9D+2        0.00000  -0.04327   0.04385   0.00000   0.00000
  23        9D-2        0.00000  -0.00000   0.00000   0.00000   0.00000
  24       10F 0        0.00000  -0.00000   0.00000   0.00000   0.00000
  25       10F+1        0.00000  -0.00000   0.00000   0.00000   0.00000
  26       10F-1        0.02530  -0.00000   0.00000   0.00000   0.06909
  27       10F+2        0.00000  -0.00000   0.00000   0.00000   0.00000
  28       10F-2        0.00000   0.00000  -0.00000   0.13284   0.00000
  29       10F+3        0.00000  -0.00000   0.00000   0.00000   0.00000
  30       10F-3        0.03266  -0.00000   0.00000   0.00000  -0.05351
  31 2   H  1S          0.07117   0.00000   0.00000  -0.03994  -0.00000
  32        2S         -0.61363   0.00000   0.00000  -1.63394   0.00000
  33        3S         -1.62952  -0.00000  -0.00000  -0.61197   0.00000
  34        4PX        -0.00746   0.00736  -0.02821   0.02121  -0.03238
  35        4PY         0.00769  -0.02811   0.00773   0.02121  -0.00000
  36        4PZ        -0.00746   0.02075   0.02048   0.02121   0.03238
  37        5PX         0.43150  -0.09436   0.36173   0.10675   0.48606
  38        5PY         0.21995   0.36045  -0.09914   0.10675  -0.00000
  39        5PZ         0.43150  -0.26609  -0.26259   0.10675  -0.48606
  40        6D 0       -0.00060   0.00137   0.00136  -0.00000   0.01773
  41        6D+1       -0.03015   0.01210  -0.00333  -0.01900   0.00000
  42        6D-1       -0.01666  -0.00317   0.01215  -0.01900   0.00005
  43        6D+2       -0.00103   0.00136  -0.00137   0.00000  -0.01024
  44        6D-2       -0.01666  -0.00893  -0.00882  -0.01900  -0.00005
  45 3   H  1S         -0.07117   0.00000   0.00000  -0.03994   0.00000
  46        2S          0.61363   0.00000   0.00000  -1.63394  -0.00000
  47        3S          1.62952  -0.00000  -0.00000  -0.61197  -0.00000
  48        4PX        -0.00746  -0.00736   0.02821  -0.02121  -0.03238
  49        4PY         0.00769   0.02811  -0.00773  -0.02121  -0.00000
  50        4PZ         0.00746   0.02075   0.02048   0.02121  -0.03238
  51        5PX         0.43150   0.09436  -0.36173  -0.10675   0.48606
  52        5PY         0.21995  -0.36045   0.09914  -0.10675  -0.00000
  53        5PZ        -0.43150  -0.26609  -0.26259   0.10675   0.48606
  54        6D 0        0.00060   0.00137   0.00136  -0.00000  -0.01773
  55        6D+1       -0.03015  -0.01210   0.00333   0.01900   0.00000
  56        6D-1       -0.01666   0.00317  -0.01215   0.01900   0.00005
  57        6D+2        0.00103   0.00136  -0.00137   0.00000   0.01024
  58        6D-2        0.01666  -0.00893  -0.00882  -0.01900   0.00005
  59 4   H  1S          0.07117   0.00000   0.00000  -0.03994  -0.00000
  60        2S         -0.61363   0.00000   0.00000  -1.63394   0.00000
  61        3S         -1.62952  -0.00000  -0.00000  -0.61197   0.00000
  62        4PX         0.00746  -0.00736   0.02821  -0.02121   0.03238
  63        4PY         0.00769  -0.02811   0.00773   0.02121  -0.00000
  64        4PZ         0.00746  -0.02075  -0.02048  -0.02121  -0.03238
  65        5PX        -0.43150   0.09436  -0.36173  -0.10675  -0.48606
  66        5PY         0.21995   0.36045  -0.09914   0.10675  -0.00000
  67        5PZ        -0.43150   0.26609   0.26259  -0.10675   0.48606
  68        6D 0       -0.00060   0.00137   0.00136  -0.00000   0.01773
  69        6D+1       -0.03015   0.01210  -0.00333  -0.01900   0.00000
  70        6D-1        0.01666   0.00317  -0.01215   0.01900  -0.00005
  71        6D+2       -0.00103   0.00136  -0.00137   0.00000  -0.01024
  72        6D-2        0.01666   0.00893   0.00882   0.01900   0.00005
  73 5   H  1S         -0.07117   0.00000   0.00000  -0.03994   0.00000
  74        2S          0.61363   0.00000   0.00000  -1.63394  -0.00000
  75        3S          1.62952  -0.00000  -0.00000  -0.61197  -0.00000
  76        4PX         0.00746   0.00736  -0.02821   0.02121   0.03238
  77        4PY         0.00769   0.02811  -0.00773  -0.02121  -0.00000
  78        4PZ        -0.00746  -0.02075  -0.02048  -0.02121   0.03238
  79        5PX        -0.43150  -0.09436   0.36173   0.10675  -0.48606
  80        5PY         0.21995  -0.36045   0.09914  -0.10675  -0.00000
  81        5PZ         0.43150   0.26609   0.26259  -0.10675  -0.48606
  82        6D 0        0.00060   0.00137   0.00136  -0.00000  -0.01773
  83        6D+1       -0.03015  -0.01210   0.00333   0.01900   0.00000
  84        6D-1        0.01666  -0.00317   0.01215  -0.01900  -0.00005
  85        6D+2        0.00103   0.00136  -0.00137   0.00000   0.01024
  86        6D-2       -0.01666   0.00893   0.00882   0.01900  -0.00005
                          21        22        23        24        25
                        (T1)--V   (T1)--V   (T2)--V   (T2)--V   (T2)--V
     Eigenvalues --     1.07519   1.07519   1.15840   1.15840   1.15840
   1 1   C  1S          0.00000   0.00000   0.00000   0.00000   0.00000
   2        2S          0.00000   0.00000   0.00000   0.00000   0.00000
   3        3S          0.00000   0.00000   0.00000   0.00000   0.00000
   4        4S          0.00000   0.00000   0.00000   0.00000   0.00000
   5        5PX         0.00000  -0.00000   0.00000   0.00000   0.12055
   6        5PY         0.00000   0.00000   0.12055   0.00000   0.00000
   7        5PZ        -0.00000   0.00000   0.00000   0.12055   0.00000
   8        6PX         0.00000  -0.00000   0.00000   0.00000   1.60033
   9        6PY         0.00000   0.00000   1.60033   0.00000   0.00000
  10        6PZ        -0.00000   0.00000   0.00000   1.60033   0.00000
  11        7PX         0.00000   0.00000   0.00000   0.00000   1.75915
  12        7PY         0.00000   0.00000   1.75915   0.00000   0.00000
  13        7PZ        -0.00000   0.00000   0.00000   1.75915   0.00000
  14        8D 0        0.00000   0.00000   0.00000   0.00000   0.00000
  15        8D+1        0.00000   0.00000   0.02119   0.00000   0.00000
  16        8D-1        0.00000   0.00000   0.00000   0.00000   0.02119
  17        8D+2        0.00000   0.00000   0.00000   0.00000   0.00000
  18        8D-2       -0.00000   0.00000   0.00000   0.02119   0.00000
  19        9D 0        0.00000   0.00000   0.00000   0.00000   0.00000
  20        9D+1        0.00000   0.00000   2.13991   0.00000   0.00000
  21        9D-1        0.00000  -0.00000   0.00000   0.00000   2.13991
  22        9D+2        0.00000   0.00000   0.00000   0.00000   0.00000
  23        9D-2       -0.00000   0.00000   0.00000   2.13991   0.00000
  24       10F 0        0.00000   0.00000   0.00000  -0.12870   0.00000
  25       10F+1        0.00000   0.06909   0.00000   0.00000   0.07881
  26       10F-1        0.00000   0.00000   0.07881   0.00000   0.00000
  27       10F+2       -0.08739   0.00000   0.00000  -0.00000   0.00000
  28       10F-2        0.00000   0.00000   0.00000   0.00000   0.00000
  29       10F+3        0.00000   0.05351   0.00000   0.00000  -0.10174
  30       10F-3        0.00000   0.00000   0.10174   0.00000   0.00000
  31 2   H  1S         -0.00000   0.00000   0.04643   0.04643   0.04643
  32        2S          0.00000   0.00000  -2.01968  -2.01968  -2.01968
  33        3S         -0.00000  -0.00000  -0.14865  -0.14865  -0.14865
  34        4PX        -0.03238   0.00000   0.02447   0.02447   0.04587
  35        4PY         0.03238  -0.03238   0.04587   0.02447   0.02447
  36        4PZ        -0.00000   0.03238   0.02447   0.04587   0.02447
  37        5PX         0.48606  -0.00000   0.18580   0.18580   0.07666
  38        5PY        -0.48606   0.48606   0.07666   0.18580   0.18580
  39        5PZ        -0.00000  -0.48606   0.18580   0.07666   0.18580
  40        6D 0        0.00000   0.01773   0.01125  -0.02249   0.01125
  41        6D+1       -0.00005   0.00005  -0.00754  -0.02566  -0.02566
  42        6D-1        0.00005  -0.00000  -0.02566  -0.02566  -0.00754
  43        6D+2       -0.02047   0.01024   0.01948  -0.00000  -0.01948
  44        6D-2        0.00000  -0.00005  -0.02566  -0.00754  -0.02566
  45 3   H  1S         -0.00000  -0.00000  -0.04643   0.04643  -0.04643
  46        2S          0.00000  -0.00000   2.01968  -2.01968   2.01968
  47        3S         -0.00000   0.00000   0.14865  -0.14865   0.14865
  48        4PX         0.03238   0.00000   0.02447  -0.02447   0.04587
  49        4PY        -0.03238  -0.03238   0.04587  -0.02447   0.02447
  50        4PZ        -0.00000  -0.03238  -0.02447   0.04587  -0.02447
  51        5PX        -0.48606  -0.00000   0.18580  -0.18580   0.07666
  52        5PY         0.48606   0.48606   0.07666  -0.18580   0.18580
  53        5PZ        -0.00000   0.48606  -0.18580   0.07666  -0.18580
  54        6D 0        0.00000  -0.01773  -0.01125  -0.02249  -0.01125
  55        6D+1        0.00005   0.00005  -0.00754   0.02566  -0.02566
  56        6D-1       -0.00005  -0.00000  -0.02566   0.02566  -0.00754
  57        6D+2       -0.02047  -0.01024  -0.01948  -0.00000   0.01948
  58        6D-2        0.00000   0.00005   0.02566  -0.00754   0.02566
  59 4   H  1S          0.00000  -0.00000   0.04643  -0.04643  -0.04643
  60        2S         -0.00000  -0.00000  -2.01968   2.01968   2.01968
  61        3S          0.00000   0.00000  -0.14865   0.14865   0.14865
  62        4PX        -0.03238   0.00000  -0.02447   0.02447   0.04587
  63        4PY        -0.03238   0.03238   0.04587  -0.02447  -0.02447
  64        4PZ        -0.00000   0.03238  -0.02447   0.04587   0.02447
  65        5PX         0.48606  -0.00000  -0.18580   0.18580   0.07666
  66        5PY         0.48606  -0.48606   0.07666  -0.18580  -0.18580
  67        5PZ        -0.00000  -0.48606  -0.18580   0.07666   0.18580
  68        6D 0       -0.00000  -0.01773   0.01125   0.02249  -0.01125
  69        6D+1        0.00005  -0.00005  -0.00754   0.02566   0.02566
  70        6D-1        0.00005  -0.00000   0.02566  -0.02566  -0.00754
  71        6D+2        0.02047  -0.01024   0.01948   0.00000   0.01948
  72        6D-2        0.00000  -0.00005   0.02566  -0.00754  -0.02566
  73 5   H  1S          0.00000   0.00000  -0.04643  -0.04643   0.04643
  74        2S         -0.00000   0.00000   2.01968   2.01968  -2.01968
  75        3S          0.00000  -0.00000   0.14865   0.14865  -0.14865
  76        4PX         0.03238   0.00000  -0.02447  -0.02447   0.04587
  77        4PY         0.03238   0.03238   0.04587   0.02447  -0.02447
  78        4PZ        -0.00000  -0.03238   0.02447   0.04587  -0.02447
  79        5PX        -0.48606  -0.00000  -0.18580  -0.18580   0.07666
  80        5PY        -0.48606  -0.48606   0.07666   0.18580  -0.18580
  81        5PZ        -0.00000   0.48606   0.18580   0.07666  -0.18580
  82        6D 0       -0.00000   0.01773  -0.01125   0.02249   0.01125
  83        6D+1       -0.00005  -0.00005  -0.00754  -0.02566   0.02566
  84        6D-1       -0.00005  -0.00000   0.02566   0.02566  -0.00754
  85        6D+2        0.02047   0.01024  -0.01948   0.00000  -0.01948
  86        6D-2        0.00000   0.00005  -0.02566  -0.00754   0.02566
                          26        27        28        29        30
                        (T2)--V   (T2)--V   (T2)--V   (T2)--V   (T2)--V
     Eigenvalues --     1.31888   1.31888   1.31888   1.53474   1.53474
   1 1   C  1S          0.00000   0.00000   0.00000   0.00000   0.00000
   2        2S          0.00000   0.00000   0.00000   0.00000   0.00000
   3        3S          0.00000   0.00000   0.00000   0.00000   0.00000
   4        4S          0.00000   0.00000   0.00000   0.00000   0.00000
   5        5PX         0.00000   0.00000   0.14586   0.00000   0.00000
   6        5PY         0.14586   0.00000   0.00000   0.25573   0.00000
   7        5PZ         0.00000   0.14586   0.00000   0.00000   0.25573
   8        6PX         0.00000   0.00000   0.16134   0.00000   0.00000
   9        6PY         0.16134   0.00000   0.00000   4.88189   0.00000
  10        6PZ         0.00000   0.16134   0.00000   0.00000   4.88189
  11        7PX         0.00000   0.00000   1.43335   0.00000   0.00000
  12        7PY         1.43335   0.00000   0.00000   2.09953   0.00000
  13        7PZ         0.00000   1.43335   0.00000   0.00000   2.09953
  14        8D 0        0.00000   0.00000   0.00000   0.00000   0.00000
  15        8D+1        0.03412   0.00000   0.00000   0.10640   0.00000
  16        8D-1        0.00000   0.00000   0.03412   0.00000   0.00000
  17        8D+2        0.00000   0.00000   0.00000   0.00000   0.00000
  18        8D-2        0.00000   0.03412   0.00000   0.00000   0.10640
  19        9D 0        0.00000   0.00000   0.00000   0.00000   0.00000
  20        9D+1       -1.41544   0.00000   0.00000   2.44513   0.00000
  21        9D-1        0.00000   0.00000  -1.41544   0.00000   0.00000
  22        9D+2        0.00000   0.00000   0.00000   0.00000   0.00000
  23        9D-2        0.00000  -1.41544   0.00000   0.00000   2.44513
  24       10F 0        0.00000   0.09792   0.00000   0.00000  -0.14955
  25       10F+1        0.00000   0.00000  -0.05996   0.00000   0.00000
  26       10F-1       -0.05996   0.00000   0.00000   0.09158   0.00000
  27       10F+2        0.00000  -0.00000   0.00000   0.00000  -0.00000
  28       10F-2        0.00000   0.00000   0.00000   0.00000   0.00000
  29       10F+3        0.00000   0.00000   0.07741   0.00000   0.00000
  30       10F-3       -0.07741   0.00000   0.00000   0.11823   0.00000
  31 2   H  1S          0.02222   0.02222   0.02222  -0.01306  -0.01306
  32        2S          0.33720   0.33720   0.33720  -3.45415  -3.45415
  33        3S         -0.46141  -0.46141  -0.46141  -1.02416  -1.02416
  34        4PX        -0.04290  -0.04290   0.03226  -0.02355  -0.02355
  35        4PY         0.03226  -0.04290  -0.04290  -0.01152  -0.02355
  36        4PZ        -0.04290   0.03226  -0.04290  -0.02355  -0.01152
  37        5PX         0.33955   0.33955  -0.91185   1.27902   1.27902
  38        5PY        -0.91185   0.33955   0.33955   1.27701   1.27902
  39        5PZ         0.33955  -0.91185   0.33955   1.27902   1.27701
  40        6D 0       -0.01302   0.02605  -0.01302   0.00287  -0.00575
  41        6D+1       -0.02281   0.01632   0.01632  -0.08468  -0.05792
  42        6D-1        0.01632   0.01632  -0.02281  -0.05792  -0.05792
  43        6D+2       -0.02256  -0.00000   0.02256   0.00498  -0.00000
  44        6D-2        0.01632  -0.02281   0.01632  -0.05792  -0.08468
  45 3   H  1S         -0.02222   0.02222  -0.02222   0.01306  -0.01306
  46        2S         -0.33720   0.33720  -0.33720   3.45415  -3.45415
  47        3S          0.46141  -0.46141   0.46141   1.02416  -1.02416
  48        4PX        -0.04290   0.04290   0.03226  -0.02355   0.02355
  49        4PY         0.03226   0.04290  -0.04290  -0.01152   0.02355
  50        4PZ         0.04290   0.03226   0.04290   0.02355  -0.01152
  51        5PX         0.33955  -0.33955  -0.91185   1.27902  -1.27902
  52        5PY        -0.91185  -0.33955   0.33955   1.27701  -1.27902
  53        5PZ        -0.33955  -0.91185  -0.33955  -1.27902   1.27701
  54        6D 0        0.01302   0.02605   0.01302  -0.00287  -0.00575
  55        6D+1       -0.02281  -0.01632   0.01632  -0.08468   0.05792
  56        6D-1        0.01632  -0.01632  -0.02281  -0.05792   0.05792
  57        6D+2        0.02256  -0.00000  -0.02256  -0.00498  -0.00000
  58        6D-2       -0.01632  -0.02281  -0.01632   0.05792  -0.08468
  59 4   H  1S          0.02222  -0.02222  -0.02222  -0.01306   0.01306
  60        2S          0.33720  -0.33720  -0.33720  -3.45415   3.45415
  61        3S         -0.46141   0.46141   0.46141  -1.02416   1.02416
  62        4PX         0.04290  -0.04290   0.03226   0.02355  -0.02355
  63        4PY         0.03226   0.04290   0.04290  -0.01152   0.02355
  64        4PZ         0.04290   0.03226  -0.04290   0.02355  -0.01152
  65        5PX        -0.33955   0.33955  -0.91185  -1.27902   1.27902
  66        5PY        -0.91185  -0.33955  -0.33955   1.27701  -1.27902
  67        5PZ        -0.33955  -0.91185   0.33955  -1.27902   1.27701
  68        6D 0       -0.01302  -0.02605   0.01302   0.00287   0.00575
  69        6D+1       -0.02281  -0.01632  -0.01632  -0.08468   0.05792
  70        6D-1       -0.01632   0.01632  -0.02281   0.05792  -0.05792
  71        6D+2       -0.02256   0.00000  -0.02256   0.00498   0.00000
  72        6D-2       -0.01632  -0.02281   0.01632   0.05792  -0.08468
  73 5   H  1S         -0.02222  -0.02222   0.02222   0.01306   0.01306
  74        2S         -0.33720  -0.33720   0.33720   3.45415   3.45415
  75        3S          0.46141   0.46141  -0.46141   1.02416   1.02416
  76        4PX         0.04290   0.04290   0.03226   0.02355   0.02355
  77        4PY         0.03226  -0.04290   0.04290  -0.01152  -0.02355
  78        4PZ        -0.04290   0.03226   0.04290  -0.02355  -0.01152
  79        5PX        -0.33955  -0.33955  -0.91185  -1.27902  -1.27902
  80        5PY        -0.91185   0.33955  -0.33955   1.27701   1.27902
  81        5PZ         0.33955  -0.91185  -0.33955   1.27902   1.27701
  82        6D 0        0.01302  -0.02605  -0.01302  -0.00287   0.00575
  83        6D+1       -0.02281   0.01632  -0.01632  -0.08468  -0.05792
  84        6D-1       -0.01632  -0.01632  -0.02281   0.05792   0.05792
  85        6D+2        0.02256   0.00000   0.02256  -0.00498   0.00000
  86        6D-2        0.01632  -0.02281  -0.01632  -0.05792  -0.08468
                          31        32        33        34        35
                        (T2)--V   (E)--V    (E)--V    (A1)--V   (T2)--V
     Eigenvalues --     1.53474   1.59847   1.59847   1.80524   2.42495
   1 1   C  1S          0.00000   0.00000  -0.00000  -0.10155   0.00000
   2        2S          0.00000  -0.00000   0.00000   1.53599   0.00000
   3        3S          0.00000  -0.00000   0.00000   0.88338   0.00000
   4        4S          0.00000   0.00000  -0.00000   3.65134   0.00000
   5        5PX         0.25573   0.00000  -0.00000   0.00000   0.00000
   6        5PY         0.00000   0.00000  -0.00000   0.00000   0.00000
   7        5PZ         0.00000   0.00000  -0.00000   0.00000   0.04901
   8        6PX         4.88189   0.00000  -0.00000   0.00000   0.00000
   9        6PY         0.00000   0.00000  -0.00000   0.00000   0.00000
  10        6PZ         0.00000   0.00000  -0.00000   0.00000  -1.85194
  11        7PX         2.09953   0.00000  -0.00000   0.00000   0.00000
  12        7PY         0.00000   0.00000  -0.00000   0.00000   0.00000
  13        7PZ         0.00000   0.00000  -0.00000   0.00000  -0.27194
  14        8D 0        0.00000  -0.00398   0.00269   0.00000   0.00000
  15        8D+1        0.00000   0.00000  -0.00000   0.00000   0.00000
  16        8D-1        0.10640   0.00000  -0.00000   0.00000   0.00000
  17        8D+2        0.00000  -0.00269  -0.00398  -0.00000   0.00000
  18        8D-2        0.00000   0.00000  -0.00000   0.00000  -0.33776
  19        9D 0        0.00000   2.36232  -1.59680   0.00000   0.00000
  20        9D+1        0.00000   0.00000  -0.00000   0.00000   0.00000
  21        9D-1        2.44513   0.00000  -0.00000   0.00000   0.00000
  22        9D+2        0.00000   1.59680   2.36232  -0.00000   0.00000
  23        9D-2        0.00000   0.00000  -0.00000   0.00000  -0.58799
  24       10F 0        0.00000   0.00000  -0.00000   0.00000   0.46739
  25       10F+1        0.09158   0.00000  -0.00000   0.00000   0.00000
  26       10F-1        0.00000   0.00000  -0.00000   0.00000   0.00000
  27       10F+2        0.00000   0.00000  -0.00000   0.00000   0.00000
  28       10F-2        0.00000   0.00000  -0.00000  -0.22979   0.00000
  29       10F+3       -0.11823   0.00000  -0.00000   0.00000   0.00000
  30       10F-3        0.00000   0.00000  -0.00000   0.00000   0.00000
  31 2   H  1S         -0.01306   0.00000   0.00000  -0.18147  -0.57641
  32        2S         -3.45415   0.00000  -0.00000  -0.82021   1.89371
  33        3S         -1.02416  -0.00000   0.00000  -0.65521  -0.25831
  34        4PX        -0.01152   0.00492   0.06941  -0.08852  -0.02929
  35        4PY        -0.02355  -0.06257  -0.03044  -0.08852  -0.02929
  36        4PZ        -0.02355   0.05765  -0.03897  -0.08852  -0.00872
  37        5PX         1.27701  -0.07531  -1.06191   0.55752  -0.37030
  38        5PY         1.27902   0.95729   0.46573   0.55752  -0.37030
  39        5PZ         1.27902  -0.88198   0.59617   0.55752  -0.47640
  40        6D 0        0.00287   0.04277  -0.02891   0.00000   0.01868
  41        6D+1       -0.05792   0.03140   0.01527   0.02884  -0.00032
  42        6D-1       -0.08468  -0.00247  -0.03483   0.02884  -0.00032
  43        6D+2       -0.00498   0.02891   0.04277  -0.00000   0.00000
  44        6D-2       -0.05792  -0.02893   0.01955   0.02884   0.11193
  45 3   H  1S          0.01306   0.00000   0.00000  -0.18147  -0.57641
  46        2S          3.45415   0.00000  -0.00000  -0.82021   1.89371
  47        3S          1.02416  -0.00000   0.00000  -0.65521  -0.25831
  48        4PX        -0.01152  -0.00492  -0.06941   0.08852   0.02929
  49        4PY        -0.02355   0.06257   0.03044   0.08852   0.02929
  50        4PZ         0.02355   0.05765  -0.03897  -0.08852  -0.00872
  51        5PX         1.27701   0.07531   1.06191  -0.55752   0.37030
  52        5PY         1.27902  -0.95729  -0.46573  -0.55752   0.37030
  53        5PZ        -1.27902  -0.88198   0.59617   0.55752  -0.47640
  54        6D 0       -0.00287   0.04277  -0.02891   0.00000   0.01868
  55        6D+1       -0.05792  -0.03140  -0.01527  -0.02884   0.00032
  56        6D-1       -0.08468   0.00247   0.03483  -0.02884   0.00032
  57        6D+2        0.00498   0.02891   0.04277  -0.00000   0.00000
  58        6D-2        0.05792  -0.02893   0.01955   0.02884   0.11193
  59 4   H  1S          0.01306   0.00000   0.00000  -0.18147   0.57641
  60        2S          3.45415   0.00000  -0.00000  -0.82021  -1.89371
  61        3S          1.02416  -0.00000   0.00000  -0.65521   0.25831
  62        4PX        -0.01152  -0.00492  -0.06941   0.08852  -0.02929
  63        4PY         0.02355  -0.06257  -0.03044  -0.08852   0.02929
  64        4PZ        -0.02355  -0.05765   0.03897   0.08852  -0.00872
  65        5PX         1.27701   0.07531   1.06191  -0.55752  -0.37030
  66        5PY        -1.27902   0.95729   0.46573   0.55752   0.37030
  67        5PZ         1.27902   0.88198  -0.59617  -0.55752  -0.47640
  68        6D 0       -0.00287   0.04277  -0.02891   0.00000  -0.01868
  69        6D+1        0.05792   0.03140   0.01527   0.02884   0.00032
  70        6D-1       -0.08468   0.00247   0.03483  -0.02884  -0.00032
  71        6D+2        0.00498   0.02891   0.04277  -0.00000  -0.00000
  72        6D-2       -0.05792   0.02893  -0.01955  -0.02884   0.11193
  73 5   H  1S         -0.01306   0.00000   0.00000  -0.18147   0.57641
  74        2S         -3.45415   0.00000  -0.00000  -0.82021  -1.89371
  75        3S         -1.02416  -0.00000   0.00000  -0.65521   0.25831
  76        4PX        -0.01152   0.00492   0.06941  -0.08852   0.02929
  77        4PY         0.02355   0.06257   0.03044   0.08852  -0.02929
  78        4PZ         0.02355  -0.05765   0.03897   0.08852  -0.00872
  79        5PX         1.27701  -0.07531  -1.06191   0.55752   0.37030
  80        5PY        -1.27902  -0.95729  -0.46573  -0.55752  -0.37030
  81        5PZ        -1.27902   0.88198  -0.59617  -0.55752  -0.47640
  82        6D 0        0.00287   0.04277  -0.02891   0.00000  -0.01868
  83        6D+1        0.05792  -0.03140  -0.01527  -0.02884  -0.00032
  84        6D-1       -0.08468  -0.00247  -0.03483   0.02884   0.00032
  85        6D+2       -0.00498   0.02891   0.04277  -0.00000  -0.00000
  86        6D-2        0.05792   0.02893  -0.01955  -0.02884   0.11193
                          36        37        38        39        40
                        (T2)--V   (T2)--V   (A1)--V   (T2)--V   (T2)--V
     Eigenvalues --     2.42495   2.42495   2.56627   2.98971   2.98971
   1 1   C  1S          0.00000   0.00000  -0.05755   0.00000   0.00000
   2        2S          0.00000   0.00000   1.45746   0.00000   0.00000
   3        3S          0.00000   0.00000   0.80073   0.00000   0.00000
   4        4S          0.00000   0.00000   6.45428   0.00000   0.00000
   5        5PX         0.00000   0.04901   0.00000   0.00000   0.00000
   6        5PY         0.04901   0.00000   0.00000  -1.02642   0.00000
   7        5PZ         0.00000   0.00000   0.00000   0.00000  -1.02642
   8        6PX         0.00000  -1.85194   0.00000   0.00000   0.00000
   9        6PY        -1.85194   0.00000   0.00000   4.82385   0.00000
  10        6PZ         0.00000   0.00000   0.00000   0.00000   4.82385
  11        7PX         0.00000  -0.27194   0.00000   0.00000   0.00000
  12        7PY        -0.27194   0.00000   0.00000   1.36844   0.00000
  13        7PZ         0.00000   0.00000   0.00000   0.00000   1.36844
  14        8D 0        0.00000   0.00000   0.00000   0.00000   0.00000
  15        8D+1       -0.33776   0.00000   0.00000  -0.25059   0.00000
  16        8D-1        0.00000  -0.33776   0.00000   0.00000   0.00000
  17        8D+2        0.00000   0.00000  -0.00000   0.00000   0.00000
  18        8D-2        0.00000   0.00000   0.00000   0.00000  -0.25059
  19        9D 0        0.00000   0.00000   0.00000   0.00000   0.00000
  20        9D+1       -0.58799   0.00000   0.00000   2.07059   0.00000
  21        9D-1        0.00000  -0.58799   0.00000   0.00000   0.00000
  22        9D+2        0.00000   0.00000  -0.00000   0.00000   0.00000
  23        9D-2        0.00000   0.00000   0.00000   0.00000   2.07059
  24       10F 0        0.00000   0.00000   0.00000   0.00000  -0.18467
  25       10F+1        0.00000  -0.28622   0.00000   0.00000   0.00000
  26       10F-1       -0.28622   0.00000   0.00000   0.11309   0.00000
  27       10F+2        0.00000   0.00000   0.00000   0.00000  -0.00000
  28       10F-2        0.00000   0.00000   0.69001   0.00000   0.00000
  29       10F+3        0.00000   0.36951   0.00000   0.00000   0.00000
  30       10F-3       -0.36951   0.00000   0.00000   0.14600   0.00000
  31 2   H  1S         -0.57641  -0.57641   0.48605   0.23106   0.23106
  32        2S          1.89371   1.89371  -2.39284  -3.11037  -3.11037
  33        3S         -0.25831  -0.25831  -0.65704  -0.22205  -0.22205
  34        4PX        -0.02929  -0.00872   0.04490   0.08007   0.08007
  35        4PY        -0.00872  -0.02929   0.04490   0.19040   0.08007
  36        4PZ        -0.02929  -0.02929   0.04490   0.08007   0.19040
  37        5PX        -0.37030  -0.47640   0.45968   0.78120   0.78120
  38        5PY        -0.47640  -0.37030   0.45968   0.49304   0.78120
  39        5PZ        -0.37030  -0.37030   0.45968   0.78120   0.49304
  40        6D 0       -0.00934  -0.00934  -0.00000   0.02734  -0.05468
  41        6D+1        0.11193  -0.00032  -0.02082   0.01970  -0.13269
  42        6D-1       -0.00032   0.11193  -0.02082  -0.13269  -0.13269
  43        6D+2       -0.01618   0.01618   0.00000   0.04736   0.00000
  44        6D-2       -0.00032  -0.00032  -0.02082  -0.13269   0.01970
  45 3   H  1S          0.57641   0.57641   0.48605  -0.23106   0.23106
  46        2S         -1.89371  -1.89371  -2.39284   3.11037  -3.11037
  47        3S          0.25831   0.25831  -0.65704   0.22205  -0.22205
  48        4PX        -0.02929  -0.00872  -0.04490   0.08007  -0.08007
  49        4PY        -0.00872  -0.02929  -0.04490   0.19040  -0.08007
  50        4PZ         0.02929   0.02929   0.04490  -0.08007   0.19040
  51        5PX        -0.37030  -0.47640  -0.45968   0.78120  -0.78120
  52        5PY        -0.47640  -0.37030  -0.45968   0.49304  -0.78120
  53        5PZ         0.37030   0.37030   0.45968  -0.78120   0.49304
  54        6D 0        0.00934   0.00934  -0.00000  -0.02734  -0.05468
  55        6D+1        0.11193  -0.00032   0.02082   0.01970   0.13269
  56        6D-1       -0.00032   0.11193   0.02082  -0.13269   0.13269
  57        6D+2        0.01618  -0.01618   0.00000  -0.04736   0.00000
  58        6D-2        0.00032   0.00032  -0.02082   0.13269   0.01970
  59 4   H  1S         -0.57641   0.57641   0.48605   0.23106  -0.23106
  60        2S          1.89371  -1.89371  -2.39284  -3.11037   3.11037
  61        3S         -0.25831   0.25831  -0.65704  -0.22205   0.22205
  62        4PX         0.02929  -0.00872  -0.04490  -0.08007   0.08007
  63        4PY        -0.00872   0.02929   0.04490   0.19040  -0.08007
  64        4PZ         0.02929  -0.02929  -0.04490  -0.08007   0.19040
  65        5PX         0.37030  -0.47640  -0.45968  -0.78120   0.78120
  66        5PY        -0.47640   0.37030   0.45968   0.49304  -0.78120
  67        5PZ         0.37030  -0.37030  -0.45968  -0.78120   0.49304
  68        6D 0       -0.00934   0.00934  -0.00000   0.02734   0.05468
  69        6D+1        0.11193   0.00032  -0.02082   0.01970   0.13269
  70        6D-1        0.00032   0.11193   0.02082   0.13269  -0.13269
  71        6D+2       -0.01618  -0.01618   0.00000   0.04736  -0.00000
  72        6D-2        0.00032  -0.00032   0.02082   0.13269   0.01970
  73 5   H  1S          0.57641  -0.57641   0.48605  -0.23106  -0.23106
  74        2S         -1.89371   1.89371  -2.39284   3.11037   3.11037
  75        3S          0.25831  -0.25831  -0.65704   0.22205   0.22205
  76        4PX         0.02929  -0.00872   0.04490  -0.08007  -0.08007
  77        4PY        -0.00872   0.02929  -0.04490   0.19040   0.08007
  78        4PZ        -0.02929   0.02929  -0.04490   0.08007   0.19040
  79        5PX         0.37030  -0.47640   0.45968  -0.78120  -0.78120
  80        5PY        -0.47640   0.37030  -0.45968   0.49304   0.78120
  81        5PZ        -0.37030   0.37030  -0.45968   0.78120   0.49304
  82        6D 0        0.00934  -0.00934  -0.00000  -0.02734   0.05468
  83        6D+1        0.11193   0.00032   0.02082   0.01970  -0.13269
  84        6D-1        0.00032   0.11193  -0.02082   0.13269   0.13269
  85        6D+2        0.01618   0.01618   0.00000  -0.04736  -0.00000
  86        6D-2       -0.00032   0.00032   0.02082  -0.13269   0.01970
                          41        42        43        44        45
                        (T2)--V   (E)--V    (E)--V    (T1)--V   (T1)--V
     Eigenvalues --     2.98971   3.13701   3.13701   3.13868   3.13868
   1 1   C  1S          0.00000  -0.00000   0.00000   0.00000   0.00000
   2        2S          0.00000  -0.00000  -0.00000   0.00000   0.00000
   3        3S          0.00000   0.00000  -0.00000   0.00000   0.00000
   4        4S          0.00000  -0.00000  -0.00000   0.00000   0.00000
   5        5PX        -1.02642   0.00000  -0.00000   0.00000   0.00000
   6        5PY         0.00000   0.00000  -0.00000  -0.00000   0.00000
   7        5PZ         0.00000   0.00000  -0.00000   0.00000  -0.00000
   8        6PX         4.82385   0.00000  -0.00000   0.00000   0.00000
   9        6PY         0.00000   0.00000  -0.00000   0.00000   0.00000
  10        6PZ         0.00000   0.00000  -0.00000   0.00000   0.00000
  11        7PX         1.36844   0.00000  -0.00000   0.00000   0.00000
  12        7PY         0.00000   0.00000  -0.00000   0.00000   0.00000
  13        7PZ         0.00000   0.00000  -0.00000   0.00000   0.00000
  14        8D 0        0.00000  -0.62080   0.54638   0.00000   0.00000
  15        8D+1        0.00000   0.00000  -0.00000  -0.00000   0.00000
  16        8D-1       -0.25059   0.00000  -0.00000   0.00000   0.00000
  17        8D+2        0.00000  -0.54638  -0.62080   0.00000   0.00000
  18        8D-2        0.00000   0.00000  -0.00000   0.00000  -0.00000
  19        9D 0        0.00000   1.09207  -0.96115   0.00000   0.00000
  20        9D+1        0.00000   0.00000  -0.00000   0.00000   0.00000
  21        9D-1        2.07059   0.00000  -0.00000   0.00000   0.00000
  22        9D+2        0.00000   0.96115   1.09207   0.00000   0.00000
  23        9D-2        0.00000   0.00000  -0.00000   0.00000   0.00000
  24       10F 0        0.00000   0.00000  -0.00000   0.00000  -0.00000
  25       10F+1        0.11309   0.00000  -0.00000   0.00000   0.00000
  26       10F-1        0.00000   0.00000  -0.00000   0.67405   0.00000
  27       10F+2        0.00000   0.00000  -0.00000   0.00000   0.85261
  28       10F-2        0.00000  -0.00000  -0.00000   0.00000   0.00000
  29       10F+3       -0.14600   0.00000  -0.00000   0.00000   0.00000
  30       10F-3        0.00000   0.00000  -0.00000  -0.52212   0.00000
  31 2   H  1S          0.23106   0.00000  -0.00000   0.00000   0.00000
  32        2S         -3.11037   0.00000   0.00000  -0.00000  -0.00000
  33        3S         -0.22205   0.00000   0.00000  -0.00000   0.00000
  34        4PX         0.19040  -0.03397  -0.16921  -0.13623   0.13623
  35        4PY         0.08007   0.16353   0.05519   0.00000  -0.13623
  36        4PZ         0.08007  -0.12956   0.11402   0.13623   0.00000
  37        5PX         0.49304  -0.06055  -0.30160   0.27096  -0.27096
  38        5PY         0.78120   0.29147   0.09837   0.00000   0.27096
  39        5PZ         0.78120  -0.23092   0.20324  -0.27096   0.00000
  40        6D 0        0.02734   0.18660  -0.16423  -0.09082  -0.00000
  41        6D+1       -0.13269  -0.01526  -0.00515   0.00000   0.07208
  42        6D-1        0.01970   0.00317   0.01580   0.07208  -0.07208
  43        6D+2       -0.04736   0.16423   0.18660   0.05243  -0.10486
[...]
      X                                                                                                                              
      X                                                                                                                              
      X                                                                                                                              
      X                                                                                                                              
      X                                                                                                                              
      X                                                                                                                              
      X                                                                                                                              
      X                                                                                                                              
      X                                                                                                                              
      X                                                                                                                              
      X                                                                                                                              
      X                                                                                                                              
      X                                                                                                                              
      X                                                                                                                              
 
 
                                        methane with imposed symmetry Td and cc-p
 VTZ basis set
                                                            Raman Spectrum
 
      3  3                                                         1        1                                                        
      2  1                                                         6        4                                                        
      5  5                                                         6        5                                                        
      1  2                                                         6        3                                                        
 
      X  X                                                         X        X                                                        
      X  X                                                         X                                                                 
      X  X                                                                                                                           
      X  X                                                                                                                           
      X  X                                                                                                                           
      X  X                                                                                                                           
      X  X                                                                                                                           
      X  X                                                                                                                           
      X  X                                                                                                                           
      X  X                                                                                                                           
      X  X                                                                                                                           
      X  X                                                                                                                           
      X  X                                                                                                                           
      X  X                                                                                                                           
      X  X                                                                                                                           
      X  X                                                                                                                           
      X  X                                                                                                                           
      X  X                                                                                                                           
      X  X                                                                                                                           
      X  X                                                                                                                           
 
 ***** Axes restored to original set *****
 -------------------------------------------------------------------
 Center     Atomic                   Forces (Hartrees/Bohr)
 Number     Number              X              Y              Z
 -------------------------------------------------------------------
      1        6           0.000000000   -0.000000000    0.000000000
      2        1          -0.000000000    0.000000000    0.000349564
      3        1           0.000329572    0.000000000   -0.000116521
      4        1          -0.000164786   -0.000285418   -0.000116521
      5        1          -0.000164786    0.000285418   -0.000116521
 -------------------------------------------------------------------
 Cartesian Forces:  Max     0.000349564 RMS     0.000180514
 Force constants in Cartesian coordinates: 
                1             2             3             4             5 
      1  0.597163D+00
      2  0.000000D+00  0.597163D+00
      3  0.000000D+00  0.000000D+00  0.597163D+00
      4 -0.541062D-01  0.000000D+00  0.000000D+00  0.516439D-01
      5  0.000000D+00 -0.541062D-01  0.000000D+00  0.000000D+00  0.516439D-01
      6  0.000000D+00  0.000000D+00 -0.339660D+00  0.000000D+00  0.000000D+00
      7 -0.307932D+00  0.000000D+00  0.897408D-01  0.284395D-02  0.000000D+00
      8  0.000000D+00 -0.541062D-01  0.000000D+00  0.000000D+00 -0.120245D-02
      9  0.897408D-01  0.000000D+00 -0.858343D-01  0.360583D-01  0.000000D+00
     10 -0.117563D+00 -0.109910D+00 -0.448704D-01 -0.190852D-03  0.175214D-02
     11 -0.109910D+00 -0.244475D+00 -0.777178D-01  0.175214D-02  0.183235D-02
     12 -0.448704D-01 -0.777179D-01 -0.858343D-01 -0.180292D-01 -0.312274D-01
     13 -0.117563D+00  0.109910D+00 -0.448704D-01 -0.190852D-03 -0.175214D-02
     14  0.109910D+00 -0.244475D+00  0.777178D-01 -0.175214D-02  0.183235D-02
     15 -0.448704D-01  0.777179D-01 -0.858343D-01 -0.180292D-01  0.312274D-01
                6             7             8             9            10 
      6  0.369277D+00
      7 -0.913215D-04  0.333984D+00
      8  0.000000D+00  0.000000D+00  0.516439D-01
      9 -0.987231D-02 -0.998224D-01  0.000000D+00  0.869365D-01
     10  0.456608D-04 -0.144483D-01 -0.288575D-01 -0.129884D-01  0.122229D+00
     11  0.790868D-04  0.658611D-03  0.183235D-02  0.162557D-02  0.122257D+00
     12 -0.987231D-02  0.508642D-02  0.120611D-01  0.438510D-02  0.499112D-01
     13  0.456608D-04 -0.144483D-01  0.288575D-01 -0.129884D-01  0.997265D-02
     14 -0.790868D-04 -0.658611D-03  0.183235D-02 -0.162557D-02  0.147580D-01
     15 -0.987231D-02  0.508642D-02 -0.120611D-01  0.438510D-02  0.790199D-02
               11            12            13            14            15 
     11  0.263399D+00
     12  0.864487D-01  0.869365D-01
     13 -0.147580D-01  0.790199D-02  0.122229D+00
     14 -0.225886D-01  0.104355D-01 -0.122257D+00  0.263399D+00
     15 -0.104355D-01  0.438510D-02  0.499112D-01 -0.864487D-01  0.869365D-01
 Force constants in internal coordinates: 
                1             2             3             4             5 
      1  0.369277D+00
      2  0.320467D-02  0.369277D+00
      3  0.320467D-02  0.320467D-02  0.369277D+00
      4  0.320467D-02  0.320467D-02  0.320467D-02  0.369277D+00
      5  0.210448D-02  0.210449D-02 -0.132142D-02 -0.288755D-02  0.219960D-01
      6  0.329823D-02 -0.851157D-03  0.367061D-02 -0.611769D-02 -0.961817D-02
      7  0.644538D-02 -0.517291D-02 -0.572616D-02  0.445368D-02 -0.145241D-01
      8 -0.851157D-03  0.329823D-02  0.367061D-02 -0.611769D-02 -0.961817D-02
      9 -0.517290D-02  0.644538D-02 -0.572616D-02  0.445368D-02 -0.145241D-01
     10 -0.582404D-02 -0.582404D-02  0.543251D-02  0.621557D-02  0.262886D-01
     11 -0.407598D-02 -0.407598D-02 -0.287716D-02  0.110291D-01 -0.151597D-01
     12  0.335669D-02  0.335669D-02 -0.863148D-02  0.191811D-02  0.915115D-02
     13 -0.441999D-02  0.777668D-02 -0.431574D-02  0.959054D-03  0.457557D-02
     14 -0.777668D-02  0.441999D-02  0.431574D-02 -0.959053D-03 -0.457557D-02
                6             7             8             9            10 
      6  0.416135D-01
      7 -0.252060D-01  0.812913D-01
      8 -0.205442D-02  0.271586D-01  0.416135D-01
      9  0.271586D-01 -0.391762D-01 -0.252060D-01  0.812913D-01
     10 -0.318935D-01 -0.295436D-01 -0.318935D-01 -0.295436D-01  0.965856D-01
     11 -0.124451D-01  0.165926D-01 -0.124451D-01  0.165926D-01  0.686462D-02
     12 -0.105841D-01  0.800180D-02 -0.105841D-01  0.800180D-02 -0.398658D-02
     13 -0.159997D-01 -0.817915D-03  0.541565D-02  0.881971D-02 -0.199329D-02
     14 -0.541565D-02 -0.881971D-02  0.159997D-01  0.817914D-03  0.199329D-02
               11            12            13            14 
     11  0.338087D-01
     12  0.175498D-02  0.210080D-01
     13  0.877489D-03  0.105040D-01  0.213171D-01
     14 -0.877489D-03 -0.105040D-01  0.108131D-01  0.213171D-01
 Leave Link  716 at Sun Aug 18 00:45:36 2024, MaxMem=   13107200 cpu:       0.0
 (Enter /programs/64bit/g09/g09-gfortran/bin/l103.exe)

 GradGradGradGradGradGradGradGradGradGradGradGradGradGradGradGradGradGrad
 Berny optimization.
 Internal  Forces:  Max     0.000349564 RMS     0.000186850
 Search for a local minimum.
 Step number   1 out of a maximum of    2
 All quantities printed in internal units (Hartrees-Bohrs-Radians)
 Second derivative matrix not updated -- analytic derivatives used.
 The second derivative matrix:
                          R1        R2        R3        R4        A1
           R1           0.36928
           R2           0.00320   0.36928
           R3           0.00320   0.00320   0.36928
           R4           0.00320   0.00320   0.00320   0.36928
           A1           0.00210   0.00210  -0.00132  -0.00289   0.02200
           A2           0.00330  -0.00085   0.00367  -0.00612  -0.00962
           A3           0.00645  -0.00517  -0.00573   0.00445  -0.01452
           A4          -0.00085   0.00330   0.00367  -0.00612  -0.00962
           A5          -0.00517   0.00645  -0.00573   0.00445  -0.01452
           A6          -0.00582  -0.00582   0.00543   0.00622   0.02629
           D1          -0.00408  -0.00408  -0.00288   0.01103  -0.01516
           D2           0.00336   0.00336  -0.00863   0.00192   0.00915
           D3          -0.00442   0.00778  -0.00432   0.00096   0.00458
           D4          -0.00778   0.00442   0.00432  -0.00096  -0.00458
                          A2        A3        A4        A5        A6
           A2           0.04161
           A3          -0.02521   0.08129
           A4          -0.00205   0.02716   0.04161
           A5           0.02716  -0.03918  -0.02521   0.08129
           A6          -0.03189  -0.02954  -0.03189  -0.02954   0.09659
           D1          -0.01245   0.01659  -0.01245   0.01659   0.00686
           D2          -0.01058   0.00800  -0.01058   0.00800  -0.00399
           D3          -0.01600  -0.00082   0.00542   0.00882  -0.00199
           D4          -0.00542  -0.00882   0.01600   0.00082   0.00199
                          D1        D2        D3        D4
           D1           0.03381
           D2           0.00175   0.02101
           D3           0.00088   0.01050   0.02132
           D4          -0.00088  -0.01050   0.01081   0.02132
     Eigenvalues ---    0.04303   0.04852   0.07388   0.14628   0.14670
     Eigenvalues ---    0.36710   0.36712   0.36743   0.378891000.00000
     Eigenvalues --- 1000.000001000.000001000.000001000.00000
 Angle between quadratic step and forces=   0.00 degrees.
 Linear search not attempted -- first point.
 Iteration  1 RMS(Cart)=  0.00049315 RMS(Int)=  0.00000000
 Iteration  2 RMS(Cart)=  0.00000000 RMS(Int)=  0.00000000
 ClnCor:  largest displacement from symmetrization is 1.76D-11 for atom     5.
 Variable       Old X    -DE/DX   Delta X   Delta X   Delta X     New X
                                 (Linear)    (Quad)   (Total)
    R1        2.04400   0.00035   0.00000   0.00092   0.00092   2.04492
    R2        2.04400   0.00035   0.00000   0.00092   0.00092   2.04492
    R3        2.04400   0.00035   0.00000   0.00092   0.00092   2.04492
    R4        2.04400   0.00035   0.00000   0.00092   0.00092   2.04492
    A1        1.91063  -0.00000   0.00000   0.00000   0.00000   1.91063
    A2        1.91063   0.00000   0.00000   0.00000   0.00000   1.91063
    A3        1.91063   0.00000   0.00000   0.00000   0.00000   1.91063
    A4        1.91063   0.00000   0.00000  -0.00000   0.00000   1.91063
    A5        1.91063   0.00000   0.00000  -0.00000   0.00000   1.91063
    A6        1.91063  -0.00000   0.00000  -0.00000   0.00000   1.91063
    D1       -2.09440  -0.00000   0.00000  -0.00000   0.00000  -2.09440
    D2        2.09440  -0.00000   0.00000   0.00000   0.00000   2.09440
    D3       -2.09440  -0.00000   0.00000  -0.00000   0.00000  -2.09440
    D4        2.09440   0.00000   0.00000  -0.00000   0.00000   2.09440
         Item               Value     Threshold  Converged?
 Maximum Force            0.000350     0.000450     YES
 RMS     Force            0.000187     0.000300     YES
 Maximum Displacement     0.000923     0.001800     YES
 RMS     Displacement     0.000493     0.001200     YES
 Predicted change in Energy=-6.450151D-07
 Optimization completed.
    -- Stationary point found.
                           ----------------------------
                           !   Optimized Parameters   !
                           ! (Angstroms and Degrees)  !
 --------------------------                            --------------------------
 ! Name  Definition              Value          Derivative Info.                !
 --------------------------------------------------------------------------------
 ! R1    R(1,2)                  1.0816         -DE/DX =    0.0003              !
 ! R2    R(1,3)                  1.0816         -DE/DX =    0.0003              !
 ! R3    R(1,4)                  1.0816         -DE/DX =    0.0003              !
 ! R4    R(1,5)                  1.0816         -DE/DX =    0.0003              !
 ! A1    A(2,1,3)              109.4712         -DE/DX =    0.0                 !
 ! A2    A(2,1,4)              109.4712         -DE/DX =    0.0                 !
 ! A3    A(2,1,5)              109.4712         -DE/DX =    0.0                 !
 ! A4    A(3,1,4)              109.4712         -DE/DX =    0.0                 !
 ! A5    A(3,1,5)              109.4712         -DE/DX =    0.0                 !
 ! A6    A(4,1,5)              109.4712         -DE/DX =    0.0                 !
 ! D1    D(2,1,4,3)           -120.0            -DE/DX =    0.0                 !
 ! D2    D(2,1,5,3)            120.0            -DE/DX =    0.0                 !
 ! D3    D(2,1,5,4)           -120.0            -DE/DX =    0.0                 !
 ! D4    D(3,1,5,4)            120.0            -DE/DX =    0.0                 !
 --------------------------------------------------------------------------------
 GradGradGradGradGradGradGradGradGradGradGradGradGradGradGradGradGradGrad

 Leave Link  103 at Sun Aug 18 00:45:36 2024, MaxMem=   13107200 cpu:       0.0
 (Enter /programs/64bit/g09/g09-gfortran/bin/l9999.exe)
 1\1\GINC-MOLMOD\Freq\RHF\CC-pVTZ\C1H4\OSPITE\18-Aug-2024\0\\#P Geom=Al
 lCheck Guess=TCheck SCRF=Check GenChk RHF/CC-pVTZ Freq\\methane with i
 mposed symmetry Td and cc-pVTZ basis set\\0,1\C,0.,0.,0.\H,0.,0.,1.081
 639139\H,1.0197791599,0.,-0.3605463797\H,-0.50988958,-0.8831546588,-0.
 3605463797\H,-0.50988958,0.8831546588,-0.3605463797\\Version=EM64L-G09
 RevA.02\State=1-A1\HF=-40.2134653\RMSD=6.353e-11\RMSF=1.805e-04\ZeroPo
 int=0.046919\Thermal=0.0497744\Dipole=0.,0.,0.\DipoleDeriv=0.076606,0.
 ,0.,0.,0.076606,0.,0.,0.,0.076606,0.0587542,0.,0.,0.,0.0587542,0.,0.,0
 .,-0.1749629,-0.1489943,0.,0.0734502,0.,0.0587542,0.,0.0734502,0.,0.03
 27856,0.0068171,-0.0899577,-0.0367251,-0.0899577,-0.0970572,-0.0636097
 ,-0.0367251,-0.0636097,0.0327856,0.0068171,0.0899577,-0.0367251,0.0899
 577,-0.0970572,0.0636097,-0.0367251,0.0636097,0.0327856\Polar=14.52159
 67,0.,14.5215967,0.,0.,14.5215967\PolarDeriv=-4.8309442,0.,4.8309442,3
 .4159936,0.,0.,0.,4.8309442,0.,0.,3.4159936,0.,3.4159945,0.,3.4159945,
 0.,0.,-6.8319871,0.5089863,0.,-0.5089863,1.2578368,0.,0.,0.,-0.5089863
 ,0.,0.,1.2578368,0.,0.7061853,0.,0.7061853,0.,0.,9.4682145,8.2912229,0
 .,0.4961358,-2.2167313,0.,1.4709554,0.,1.0162378,0.,0.,-0.8991558,0.,-
 2.0328475,0.,-0.715272,1.9910574,0.,-0.8787423,-1.9846322,-2.1277297,-
 2.4090472,-1.2285497,-0.5705269,-0.7354777,-1.6773082,-2.6690982,-5.93
 27677,-0.5705269,-1.8873374,-1.2738847,-1.0446659,-0.5705269,-1.703453
 6,-0.9955287,-1.7243063,-0.8787423,-1.9846322,2.1277297,-2.4090472,-1.
 2285497,0.5705269,-0.7354777,1.6773082,-2.6690982,5.9327677,0.5705269,
 -1.8873374,1.2738847,-1.0446659,0.5705269,-1.7034536,-0.9955287,1.7243
 063,-0.8787423\HyperPolar=20.5510605,0.,-20.5510605,0.,-14.5317942,0.,
 -14.5317942,0.,0.,29.0635885\PG=TD [O(C1),4C3(H1)]\NImag=0\\0.59716282
 ,0.,0.59716282,0.,0.,0.59716282,-0.05410616,0.,0.,0.05164392,0.,-0.054
 10616,0.,0.,0.05164392,0.,0.,-0.33965978,0.,0.,0.36927672,-0.30793160,
 0.,0.08974084,0.00284395,0.,-0.00009132,0.33398419,0.,-0.05410617,0.,0
 .,-0.00120245,0.,0.,0.05164392,0.08974084,0.,-0.08583434,0.03605834,0.
 ,-0.00987231,-0.09982236,0.,0.08693645,-0.11756253,-0.10990964,-0.0448
 7042,-0.00019085,0.00175214,0.00004566,-0.01444827,-0.02885746,-0.0129
 8841,0.12222899,-0.10990964,-0.24447524,-0.07771785,0.00175214,0.00183
 235,0.00007909,0.00065861,0.00183235,0.00162557,0.12225692,0.26339912,
 -0.04487042,-0.07771785,-0.08583434,-0.01802917,-0.03122744,-0.0098723
 1,0.00508642,0.01206108,0.00438510,0.04991118,0.08644870,0.08693645,-0
 .11756253,0.10990964,-0.04487042,-0.00019085,-0.00175214,0.00004566,-0
 .01444827,0.02885746,-0.01298841,0.00997265,-0.01475804,0.00790199,0.1
 2222899,0.10990964,-0.24447524,0.07771785,-0.00175214,0.00183235,-0.00
 007909,-0.00065861,0.00183235,-0.00162557,0.01475804,-0.02258857,0.010
 43551,-0.12225692,0.26339912,-0.04487042,0.07771785,-0.08583434,-0.018
 02917,0.03122744,-0.00987231,0.00508642,-0.01206108,0.00438510,0.00790
 199,-0.01043551,0.00438510,0.04991118,-0.08644870,0.08693645\\0.,0.,0.
 ,0.,0.,-0.00034956,-0.00032957,0.,0.00011652,0.00016479,0.00028542,0.0
 0011652,0.00016479,-0.00028542,0.00011652\\\@


 IN THE FIGHT BETWEEN YOU AND THE WORLD, BACK THE WORLD

                                        -- FRANZ KAFKA
 Job cpu time:  0 days  0 hours  0 minutes 23.3 seconds.
 File lengths (MBytes):  RWF=      9 Int=      0 D2E=      0 Chk=      2 Scr=      1
 Normal termination of Gaussian 09 at Sun Aug 18 00:45:36 2024.
