 Entering Gaussian System, Link 0=/programs/64bit/g09/g09-gfortran/bin/g09
 Input=ch4_cc-pVDZ.com
 Output=ch4_cc-pVDZ.log
 Initial command:
 /programs/64bit/g09/g09-gfortran/bin/l1.exe /home/ospite/Desktop/MMfP/Project6/CH4/g09/HF/Gau-19756.inp -scrdir=/home/ospite/Desktop/MMfP/Project6/CH4/g09/HF/
 Entering Link 1 = /programs/64bit/g09/g09-gfortran/bin/l1.exe PID=     19757.
  
 Copyright (c) 1988,1990,1992,1993,1995,1998,2003,2009, Gaussian, Inc.
                  All Rights Reserved.
  
 This is part of the Gaussian(R) 09 program.  It is based on
 the Gaussian(R) 03 system (copyright 2003, Gaussian, Inc.),
 the Gaussian(R) 98 system (copyright 1998, Gaussian, Inc.),
 the Gaussian(R) 94 system (copyright 1995, Gaussian, Inc.),
 the Gaussian 92(TM) system (copyright 1992, Gaussian, Inc.),
 the Gaussian 90(TM) system (copyright 1990, Gaussian, Inc.),
 the Gaussian 88(TM) system (copyright 1988, Gaussian, Inc.),
 the Gaussian 86(TM) system (copyright 1986, Carnegie Mellon
 University), and the Gaussian 82(TM) system (copyright 1983,
 Carnegie Mellon University). Gaussian is a federally registered
 trademark of Gaussian, Inc.
  
 This software contains proprietary and confidential information,
 including trade secrets, belonging to Gaussian, Inc.
  
 This software is provided under written license and may be
 used, copied, transmitted, or stored only in accord with that
 written license.
  
 The following legend is applicable only to US Government
 contracts under FAR:
  
                    RESTRICTED RIGHTS LEGEND
  
 Use, reproduction and disclosure by the US Government is
 subject to restrictions as set forth in subparagraphs (a)
 and (c) of the Commercial Computer Software - Restricted
 Rights clause in FAR 52.227-19.
  
 Gaussian, Inc.
 340 Quinnipiac St., Bldg. 40, Wallingford CT 06492
  
  
 ---------------------------------------------------------------
 Warning -- This program may not be used in any manner that
 competes with the business of Gaussian, Inc. or will provide
 assistance to any competitor of Gaussian, Inc.  The licensee
 of this program is prohibited from giving any competitor of
 Gaussian, Inc. access to this program.  By using this program,
 the user acknowledges that Gaussian, Inc. is engaged in the
 business of creating and licensing software in the field of
 computational chemistry and represents and warrants to the
 licensee that it is not a competitor of Gaussian, Inc. and that
 it will not use this program in any manner prohibited above.
 ---------------------------------------------------------------
  

 Cite this work as:
 Gaussian 09, Revision A.02,
 M. J. Frisch, G. W. Trucks, H. B. Schlegel, G. E. Scuseria, 
 M. A. Robb, J. R. Cheeseman, G. Scalmani, V. Barone, B. Mennucci, 
 G. A. Petersson, H. Nakatsuji, M. Caricato, X. Li, H. P. Hratchian, 
 A. F. Izmaylov, J. Bloino, G. Zheng, J. L. Sonnenberg, M. Hada, 
 M. Ehara, K. Toyota, R. Fukuda, J. Hasegawa, M. Ishida, T. Nakajima, 
 Y. Honda, O. Kitao, H. Nakai, T. Vreven, J. A. Montgomery, Jr., 
 J. E. Peralta, F. Ogliaro, M. Bearpark, J. J. Heyd, E. Brothers, 
 K. N. Kudin, V. N. Staroverov, R. Kobayashi, J. Normand, 
 K. Raghavachari, A. Rendell, J. C. Burant, S. S. Iyengar, J. Tomasi, 
 M. Cossi, N. Rega, J. M. Millam, M. Klene, J. E. Knox, J. B. Cross, 
 V. Bakken, C. Adamo, J. Jaramillo, R. Gomperts, R. E. Stratmann, 
 O. Yazyev, A. J. Austin, R. Cammi, C. Pomelli, J. W. Ochterski, 
 R. L. Martin, K. Morokuma, V. G. Zakrzewski, G. A. Voth, 
 P. Salvador, J. J. Dannenberg, S. Dapprich, A. D. Daniels, 
 O. Farkas, J. B. Foresman, J. V. Ortiz, J. Cioslowski, 
 and D. J. Fox, Gaussian, Inc., Wallingford CT, 2009.
 
 ******************************************
 Gaussian 09:  EM64L-G09RevA.02 11-Jun-2009
                18-Aug-2024 
 ******************************************
 %mem=100MB
 ---------------------------------------------------------------
 #p hf/cc-pVDZ opt freq symmetry=(follow,pg=Td) pop=full gfinput
 ---------------------------------------------------------------
 1/18=20,19=15,38=1/1,3;
 2/9=110,12=2,17=6,18=5,19=2314885530818462804,40=1/2;
 3/5=16,11=9,16=1,24=10,25=1,30=1,71=1/1,2,3;
 4//1;
 5/5=2,38=5/2;
 6/7=3,28=1/1;
 7//1,2,3,16;
 1/18=20,19=15/3(2);
 2/9=110,15=5,19=2314885530818462804/2;
 99//99;
 2/9=110,15=5,19=2314885530818462804/2;
 3/5=16,11=9,16=1,25=1,30=1,71=1/1,2,3;
 4/5=5,16=3/1;
 5/5=2,38=5/2;
 7//1,2,3,16;
 1/18=20,19=15/3(-5);
 2/9=110,15=5,19=2314885530818462804/2;
 6/7=3,19=2,28=1/1;
 99/9=1/99;
 Leave Link    1 at Sun Aug 18 00:44:22 2024, MaxMem=   13107200 cpu:       0.1
 (Enter /programs/64bit/g09/g09-gfortran/bin/l101.exe)
 ------------------------------------------------------
 methane with imposed symmetry Td and cc-pVDZ basis set
 ------------------------------------------------------
 Symbolic Z-matrix:
 Charge =  0 Multiplicity = 1
 C1
 H2                   1    d
 H3                   1    d        2    a
 H4                   1    d        2    a        3    t        0
 H5                   1    d        2    a        3    -t       0
       Variables:
  d                     1.09                     
  a                   109.471                    
  t                   120.                       
 
     3 tetrahedral angles replaced.
 NAtoms=      5 NQM=      5 NQMF=      0 NMic=      0 NMicF=      0 NTot=      5.
                    Isotopes and Nuclear Properties:
 (Nuclear quadrupole moments (NQMom) in fm**2, nuclear magnetic moments (NMagM)
  in nuclear magnetons)

  Atom         1           2           3           4           5
 IAtWgt=          12           1           1           1           1
 AtmWgt=  12.0000000   1.0078250   1.0078250   1.0078250   1.0078250
 NucSpn=           0           1           1           1           1
 AtZEff=   0.0000000   0.0000000   0.0000000   0.0000000   0.0000000
 NQMom=    0.0000000   0.0000000   0.0000000   0.0000000   0.0000000
 NMagM=    0.0000000   2.7928460   2.7928460   2.7928460   2.7928460
 Leave Link  101 at Sun Aug 18 00:44:22 2024, MaxMem=   13107200 cpu:       0.1
 (Enter /programs/64bit/g09/g09-gfortran/bin/l103.exe)

 GradGradGradGradGradGradGradGradGradGradGradGradGradGradGradGradGradGrad
 Berny optimization.
 Initialization pass.
                           ----------------------------
                           !    Initial Parameters    !
                           ! (Angstroms and Degrees)  !
 --------------------------                            --------------------------
 ! Name  Definition              Value          Derivative Info.                !
 --------------------------------------------------------------------------------
 ! R1    R(1,2)                  1.09           estimate D2E/DX2                !
 ! R2    R(1,3)                  1.09           estimate D2E/DX2                !
 ! R3    R(1,4)                  1.09           estimate D2E/DX2                !
 ! R4    R(1,5)                  1.09           estimate D2E/DX2                !
 ! A1    A(2,1,3)              109.4712         estimate D2E/DX2                !
 ! A2    A(2,1,4)              109.4712         estimate D2E/DX2                !
 ! A3    A(2,1,5)              109.4712         estimate D2E/DX2                !
 ! A4    A(3,1,4)              109.4712         estimate D2E/DX2                !
 ! A5    A(3,1,5)              109.4712         estimate D2E/DX2                !
 ! A6    A(4,1,5)              109.4712         estimate D2E/DX2                !
 ! D1    D(2,1,4,3)           -120.0            estimate D2E/DX2                !
 ! D2    D(2,1,5,3)            120.0            estimate D2E/DX2                !
 ! D3    D(2,1,5,4)           -120.0            estimate D2E/DX2                !
 ! D4    D(3,1,5,4)            120.0            estimate D2E/DX2                !
 --------------------------------------------------------------------------------
 Trust Radius=3.00D-01 FncErr=1.00D-07 GrdErr=1.00D-07
 Number of steps in this run=  24 maximum allowed number of steps= 100.
 GradGradGradGradGradGradGradGradGradGradGradGradGradGradGradGradGradGrad

 Leave Link  103 at Sun Aug 18 00:44:22 2024, MaxMem=   13107200 cpu:       0.0
 (Enter /programs/64bit/g09/g09-gfortran/bin/l202.exe)
                          Input orientation:                          
 ---------------------------------------------------------------------
 Center     Atomic      Atomic             Coordinates (Angstroms)
 Number     Number       Type             X           Y           Z
 ---------------------------------------------------------------------
      1          6           0        0.000000    0.000000    0.000000
      2          1           0        0.000000    0.000000    1.090000
      3          1           0        1.027662    0.000000   -0.363333
      4          1           0       -0.513831   -0.889981   -0.363333
      5          1           0       -0.513831    0.889981   -0.363333
 ---------------------------------------------------------------------
                    Distance matrix (angstroms):
                    1          2          3          4          5
     1  C    0.000000
     2  H    1.090000   0.000000
     3  H    1.090000   1.779963   0.000000
     4  H    1.090000   1.779963   1.779963   0.000000
     5  H    1.090000   1.779963   1.779963   1.779963   0.000000
 Symm:  InNGrp=TD   InAxis=0.
 Stoichiometry    CH4
 Framework group  TD[O(C),4C3(H)]
 Deg. of freedom     1
 Full point group                 TD      NOp  24
 Largest Abelian subgroup         D2      NOp   4
 Largest concise Abelian subgroup D2      NOp   4
                         Standard orientation:                         
 ---------------------------------------------------------------------
 Center     Atomic      Atomic             Coordinates (Angstroms)
 Number     Number       Type             X           Y           Z
 ---------------------------------------------------------------------
      1          6           0        0.000000    0.000000    0.000000
      2          1           0        0.629312    0.629312    0.629312
      3          1           0       -0.629312   -0.629312    0.629312
      4          1           0       -0.629312    0.629312   -0.629312
      5          1           0        0.629312   -0.629312   -0.629312
 ---------------------------------------------------------------------
 Rotational constants (GHZ):    158.2742720    158.2742720    158.2742720
 Leave Link  202 at Sun Aug 18 00:44:22 2024, MaxMem=   13107200 cpu:       0.0
 (Enter /programs/64bit/g09/g09-gfortran/bin/l301.exe)
 Standard basis: CC-pVDZ (5D, 7F)
 Ernie: Thresh=  0.10000D-02 Tol=  0.10000D-05 Strict=F.
 Ernie:  2 primitive shells out of 42 were deleted.
 AO basis set in the form of general basis input (Overlap normalization):
      1 0
 S   7 1.00       0.000000000000
      0.6665000000D+04  0.6935163173D-03
      0.1000000000D+04  0.5341502433D-02
      0.2280000000D+03  0.2713667141D-01
      0.6471000000D+02  0.1019923853D+00
      0.2106000000D+02  0.2755086365D+00
      0.7495000000D+01  0.4510864331D+00
      0.2797000000D+01  0.2875657448D+00
 S   7 1.00       0.000000000000
      0.6665000000D+04  0.7733547404D-05
      0.2280000000D+03  0.2780721367D-03
      0.6471000000D+02 -0.2578756542D-02
      0.2106000000D+02 -0.8950876838D-02
      0.7495000000D+01 -0.1060588547D+00
      0.2797000000D+01 -0.1315176856D+00
      0.5215000000D+00  0.1099486598D+01
 S   1 1.00       0.000000000000
      0.1596000000D+00  0.1000000000D+01
 P   3 1.00       0.000000000000
      0.9439000000D+01  0.5697925159D-01
      0.2002000000D+01  0.3132072115D+00
      0.5456000000D+00  0.7603767417D+00
 P   1 1.00       0.000000000000
      0.1517000000D+00  0.1000000000D+01
 D   1 1.00       0.000000000000
      0.5500000000D+00  0.1000000000D+01
 ****
      2 0
 S   3 1.00       0.000000000000
      0.1301000000D+02  0.3349872639D-01
      0.1962000000D+01  0.2348008012D+00
      0.4446000000D+00  0.8136829579D+00
 S   1 1.00       0.000000000000
      0.1220000000D+00  0.1000000000D+01
 P   1 1.00       0.000000000000
      0.7270000000D+00  0.1000000000D+01
 ****
      3 0
 S   3 1.00       0.000000000000
      0.1301000000D+02  0.3349872639D-01
      0.1962000000D+01  0.2348008012D+00
      0.4446000000D+00  0.8136829579D+00
 S   1 1.00       0.000000000000
      0.1220000000D+00  0.1000000000D+01
 P   1 1.00       0.000000000000
      0.7270000000D+00  0.1000000000D+01
 ****
      4 0
 S   3 1.00       0.000000000000
      0.1301000000D+02  0.3349872639D-01
      0.1962000000D+01  0.2348008012D+00
      0.4446000000D+00  0.8136829579D+00
 S   1 1.00       0.000000000000
      0.1220000000D+00  0.1000000000D+01
 P   1 1.00       0.000000000000
      0.7270000000D+00  0.1000000000D+01
 ****
      5 0
 S   3 1.00       0.000000000000
      0.1301000000D+02  0.3349872639D-01
      0.1962000000D+01  0.2348008012D+00
      0.4446000000D+00  0.8136829579D+00
 S   1 1.00       0.000000000000
      0.1220000000D+00  0.1000000000D+01
 P   1 1.00       0.000000000000
      0.7270000000D+00  0.1000000000D+01
 ****

 There are    10 symmetry adapted basis functions of A   symmetry.
 There are     8 symmetry adapted basis functions of B1  symmetry.
 There are     8 symmetry adapted basis functions of B2  symmetry.
 There are     8 symmetry adapted basis functions of B3  symmetry.
 Integral buffers will be    131072 words long.
 Raffenetti 1 integral format.
 Two-electron integral symmetry is turned on.
    34 basis functions,    61 primitive gaussians,    35 cartesian basis functions
     5 alpha electrons        5 beta electrons
       nuclear repulsion energy        13.4353891954 Hartrees.
 IExCor=    0 DFT=F Ex=HF Corr=None ExCW=0 ScaHFX=  1.000000
 ScaDFX=  1.000000  1.000000  1.000000  1.000000 ScalE2=  1.000000  1.000000
 IRadAn=      0 IRanWt=     -1 IRanGd=            0 ICorTp=0
 NAtoms=    5 NActive=    5 NUniq=    2 SFac= 3.00D+00 NAtFMM=   80 NAOKFM=F Big=F
 Leave Link  301 at Sun Aug 18 00:44:22 2024, MaxMem=   13107200 cpu:       0.1
 (Enter /programs/64bit/g09/g09-gfortran/bin/l302.exe)
 NPDir=0 NMtPBC=     1 NCelOv=     1 NCel=       1 NClECP=     1 NCelD=      1
         NCelK=      1 NCelE2=     1 NClLst=     1 CellRange=     0.0.
 One-electron integrals computed using PRISM.
 One-electron integral symmetry used in STVInt
 NBasis=    34 RedAO= T  NBF=    10     8     8     8
 NBsUse=    34 1.00D-06 NBFU=    10     8     8     8
 Leave Link  302 at Sun Aug 18 00:44:23 2024, MaxMem=   13107200 cpu:       0.1
 (Enter /programs/64bit/g09/g09-gfortran/bin/l303.exe)
 DipDrv:  MaxL=1.
 Leave Link  303 at Sun Aug 18 00:44:23 2024, MaxMem=   13107200 cpu:       0.0
 (Enter /programs/64bit/g09/g09-gfortran/bin/l401.exe)
 Harris functional with IExCor=  205 diagonalized for initial guess.
 ExpMin= 1.22D-01 ExpMax= 6.66D+03 ExpMxC= 2.28D+02 IAcc=1 IRadAn=         1 AccDes= 0.00D+00
 HarFok:  IExCor=  205 AccDes= 0.00D+00 IRadAn=         1 IDoV= 1
 ScaDFX=  1.000000  1.000000  1.000000  1.000000
 FoFCou: FMM=F IPFlag=           0 FMFlag=      100000 FMFlg1=           0
         NFxFlg=           0 DoJE=T BraDBF=F KetDBF=T FulRan=T
         Omega=  0.000000  0.000000  1.000000  0.000000  0.000000 ICntrl=     500 IOpCl=  0
         NMat0=    1 NMatS0=    1 NMatT0=    0 NMatD0=    1 NMtDS0=    0 NMtDT0=    0
         I1Cent=           4 NGrid=           0.
 Petite list used in FoFCou.
 Harris En= -40.3726802951315    
 Initial guess orbital symmetries:
       Occupied  (A1) (A1) (T2) (T2) (T2)
       Virtual   (A1) (T2) (T2) (T2) (T2) (T2) (T2) (T2) (T2) (T2)
                 (A1) (E) (E) (A1) (T1) (T1) (T1) (T2) (T2) (T2)
                 (T2) (T2) (T2) (E) (E) (A1) (T2) (T2) (T2)
 The electronic state of the initial guess is 1-A1.
 Leave Link  401 at Sun Aug 18 00:44:23 2024, MaxMem=   13107200 cpu:       0.2
 (Enter /programs/64bit/g09/g09-gfortran/bin/l502.exe)
 Closed shell SCF:
 Requested convergence on RMS density matrix=1.00D-08 within 128 cycles.
 Requested convergence on MAX density matrix=1.00D-06.
 Requested convergence on             energy=1.00D-06.
 No special actions if energy rises.
 Using DIIS extrapolation, IDIIS=  1040.
 Integral symmetry usage will be decided dynamically.
 Keep R1 ints in memory in canonical form, NReq=1041598.
 IEnd=       22819 IEndB=       22819 NGot=    13107200 MDV=    12903489
 LenX=    12903489 LenY=    12901823
 Symmetry not used in FoFDir.
 MinBra= 0 MaxBra= 2 Meth= 1.
 IRaf=       0 NMat=   1 IRICut=       1 DoRegI=T DoRafI=F ISym2E= 0 JSym2E=0.

 Cycle   1  Pass 1  IDiag  1:
 E= -40.0761603952140    
 DIIS: error= 7.52D-02 at cycle   1 NSaved=   1.
 NSaved= 1 IEnMin= 1 EnMin= -40.0761603952140     IErMin= 1 ErrMin= 7.52D-02
 ErrMax= 7.52D-02 EMaxC= 1.00D-01 BMatC= 1.20D-01 BMatP= 1.20D-01
 IDIUse=3 WtCom= 2.48D-01 WtEn= 7.52D-01
 Coeff-Com:  0.100D+01
 Coeff-En:   0.100D+01
 Coeff:      0.100D+01
 Gap=     0.655 Goal=   None    Shift=    0.000
 GapD=    0.655 DampG=2.000 DampE=0.500 DampFc=1.0000 IDamp=-1.
 RMSDP=1.00D-02 MaxDP=1.28D-01              OVMax= 1.45D-01

 Cycle   2  Pass 1  IDiag  1:
 E= -40.1803199566101     Delta-E=       -0.104159561396 Rises=F Damp=F
 DIIS: error= 2.96D-02 at cycle   2 NSaved=   2.
 NSaved= 2 IEnMin= 2 EnMin= -40.1803199566101     IErMin= 2 ErrMin= 2.96D-02
 ErrMax= 2.96D-02 EMaxC= 1.00D-01 BMatC= 1.89D-02 BMatP= 1.20D-01
 IDIUse=3 WtCom= 7.04D-01 WtEn= 2.96D-01
 Coeff-Com:  0.266D+00 0.734D+00
 Coeff-En:   0.000D+00 0.100D+01
 Coeff:      0.187D+00 0.813D+00
 Gap=     0.746 Goal=   None    Shift=    0.000
 RMSDP=3.01D-03 MaxDP=3.45D-02 DE=-1.04D-01 OVMax= 4.28D-02

 Cycle   3  Pass 1  IDiag  1:
 E= -40.1983054209190     Delta-E=       -0.017985464309 Rises=F Damp=F
 DIIS: error= 3.96D-03 at cycle   3 NSaved=   3.
 NSaved= 3 IEnMin= 3 EnMin= -40.1983054209190     IErMin= 3 ErrMin= 3.96D-03
 ErrMax= 3.96D-03 EMaxC= 1.00D-01 BMatC= 3.21D-04 BMatP= 1.89D-02
 IDIUse=3 WtCom= 9.60D-01 WtEn= 3.96D-02
 Coeff-Com: -0.350D-01 0.399D-01 0.995D+00
 Coeff-En:   0.000D+00 0.000D+00 0.100D+01
 Coeff:     -0.336D-01 0.383D-01 0.995D+00
 Gap=     0.735 Goal=   None    Shift=    0.000
 RMSDP=4.70D-04 MaxDP=5.10D-03 DE=-1.80D-02 OVMax= 6.68D-03

 Cycle   4  Pass 1  IDiag  1:
 E= -40.1987030213981     Delta-E=       -0.000397600479 Rises=F Damp=F
 DIIS: error= 4.37D-04 at cycle   4 NSaved=   4.
 NSaved= 4 IEnMin= 4 EnMin= -40.1987030213981     IErMin= 4 ErrMin= 4.37D-04
 ErrMax= 4.37D-04 EMaxC= 1.00D-01 BMatC= 3.38D-06 BMatP= 3.21D-04
 IDIUse=3 WtCom= 9.96D-01 WtEn= 4.37D-03
 Coeff-Com:  0.943D-02-0.272D-01-0.344D+00 0.136D+01
 Coeff-En:   0.000D+00 0.000D+00 0.000D+00 0.100D+01
 Coeff:      0.938D-02-0.271D-01-0.342D+00 0.136D+01
 Gap=     0.736 Goal=   None    Shift=    0.000
 RMSDP=1.03D-04 MaxDP=6.57D-04 DE=-3.98D-04 OVMax= 1.10D-03

 Cycle   5  Pass 1  IDiag  1:
 E= -40.1987102461676     Delta-E=       -0.000007224769 Rises=F Damp=F
 DIIS: error= 2.60D-05 at cycle   5 NSaved=   5.
 NSaved= 5 IEnMin= 5 EnMin= -40.1987102461676     IErMin= 5 ErrMin= 2.60D-05
 ErrMax= 2.60D-05 EMaxC= 1.00D-01 BMatC= 2.07D-08 BMatP= 3.38D-06
 IDIUse=1 WtCom= 1.00D+00 WtEn= 0.00D+00
 Coeff-Com: -0.194D-02 0.593D-02 0.755D-01-0.347D+00 0.127D+01
 Coeff:     -0.194D-02 0.593D-02 0.755D-01-0.347D+00 0.127D+01
 Gap=     0.736 Goal=   None    Shift=    0.000
 RMSDP=1.32D-05 MaxDP=7.32D-05 DE=-7.22D-06 OVMax= 9.74D-05

 Cycle   6  Pass 1  IDiag  1:
 E= -40.1987102928023     Delta-E=       -0.000000046635 Rises=F Damp=F
 DIIS: error= 1.14D-06 at cycle   6 NSaved=   6.
 NSaved= 6 IEnMin= 6 EnMin= -40.1987102928023     IErMin= 6 ErrMin= 1.14D-06
 ErrMax= 1.14D-06 EMaxC= 1.00D-01 BMatC= 2.39D-11 BMatP= 2.07D-08
 IDIUse=1 WtCom= 1.00D+00 WtEn= 0.00D+00
 Coeff-Com:  0.129D-03-0.364D-03-0.485D-02 0.226D-01-0.926D-01 0.108D+01
 Coeff:      0.129D-03-0.364D-03-0.485D-02 0.226D-01-0.926D-01 0.108D+01
 Gap=     0.736 Goal=   None    Shift=    0.000
 RMSDP=4.96D-07 MaxDP=2.93D-06 DE=-4.66D-08 OVMax= 2.35D-06

 Cycle   7  Pass 1  IDiag  1:
 E= -40.1987102928432     Delta-E=       -0.000000000041 Rises=F Damp=F
 DIIS: error= 1.42D-07 at cycle   7 NSaved=   7.
 NSaved= 7 IEnMin= 7 EnMin= -40.1987102928432     IErMin= 7 ErrMin= 1.42D-07
 ErrMax= 1.42D-07 EMaxC= 1.00D-01 BMatC= 5.00D-13 BMatP= 2.39D-11
 IDIUse=1 WtCom= 1.00D+00 WtEn= 0.00D+00
 Coeff-Com:  0.350D-05-0.167D-04-0.157D-03 0.694D-03-0.225D-02-0.125D+00
 Coeff-Com:  0.113D+01
 Coeff:      0.350D-05-0.167D-04-0.157D-03 0.694D-03-0.225D-02-0.125D+00
 Coeff:      0.113D+01
 Gap=     0.736 Goal=   None    Shift=    0.000
 RMSDP=8.02D-08 MaxDP=4.60D-07 DE=-4.09D-11 OVMax= 3.75D-07

 Cycle   8  Pass 1  IDiag  1:
 E= -40.1987102928442     Delta-E=       -0.000000000001 Rises=F Damp=F
 DIIS: error= 1.27D-08 at cycle   8 NSaved=   8.
 NSaved= 8 IEnMin= 8 EnMin= -40.1987102928442     IErMin= 8 ErrMin= 1.27D-08
 ErrMax= 1.27D-08 EMaxC= 1.00D-01 BMatC= 3.75D-15 BMatP= 5.00D-13
 IDIUse=1 WtCom= 1.00D+00 WtEn= 0.00D+00
 Coeff-Com:  0.139D-06 0.484D-06-0.246D-07-0.329D-05 0.404D-04 0.185D-01
 Coeff-Com: -0.192D+00 0.117D+01
 Coeff:      0.139D-06 0.484D-06-0.246D-07-0.329D-05 0.404D-04 0.185D-01
 Coeff:     -0.192D+00 0.117D+01
 Gap=     0.736 Goal=   None    Shift=    0.000
 RMSDP=4.66D-09 MaxDP=2.92D-08 DE=-9.38D-13 OVMax= 2.32D-08

 SCF Done:  E(RHF) =  -40.1987102928     A.U. after    8 cycles
             Convg  =    0.4663D-08             -V/T =  2.0024
 KE= 4.010333179334D+01 PE=-1.197996986474D+02 EE= 2.606226736577D+01
 Leave Link  502 at Sun Aug 18 00:44:23 2024, MaxMem=   13107200 cpu:       0.2
 (Enter /programs/64bit/g09/g09-gfortran/bin/l601.exe)
 Copying SCF densities to generalized density rwf, IOpCl= 0 IROHF=0.

 **********************************************************************

            Population analysis using the SCF density.

 **********************************************************************

 Orbital symmetries:
       Occupied  (A1) (A1) (T2) (T2) (T2)
       Virtual   (A1) (T2) (T2) (T2) (T2) (T2) (T2) (T2) (T2) (T2)
                 (A1) (E) (E) (A1) (T1) (T1) (T1) (T2) (T2) (T2)
                 (T2) (T2) (T2) (E) (E) (A1) (T2) (T2) (T2)
 The electronic state is 1-A1.
 Alpha  occ. eigenvalues --  -11.21621  -0.94201  -0.54256  -0.54256  -0.54256
 Alpha virt. eigenvalues --    0.19302   0.27402   0.27402   0.27402   0.58946
 Alpha virt. eigenvalues --    0.58946   0.58946   0.88915   0.88915   0.88915
 Alpha virt. eigenvalues --    0.93366   1.13153   1.13153   1.25642   1.68587
 Alpha virt. eigenvalues --    1.68587   1.68587   1.89352   1.89352   1.89352
 Alpha virt. eigenvalues --    2.21119   2.21119   2.21119   2.54334   2.54334
 Alpha virt. eigenvalues --    2.74880   2.79425   2.79425   2.79425
     Molecular Orbital Coefficients:
                           1         2         3         4         5
                        (A1)--O   (A1)--O   (T2)--O   (T2)--O   (T2)--O
     Eigenvalues --   -11.21621  -0.94201  -0.54256  -0.54256  -0.54256
   1 1   C  1S          0.99729  -0.18811   0.00000   0.00000   0.00000
   2        2S          0.01856   0.36350   0.00000   0.00000   0.00000
   3        3S         -0.00821   0.23735   0.00000   0.00000   0.00000
   4        4PX         0.00000   0.00000   0.00000   0.42331   0.00000
   5        4PY         0.00000   0.00000   0.42331   0.00000   0.00000
   6        4PZ         0.00000   0.00000   0.00000   0.00000   0.42331
   7        5PX         0.00000   0.00000   0.00000   0.19769   0.00000
   8        5PY         0.00000   0.00000   0.19769   0.00000   0.00000
   9        5PZ         0.00000   0.00000   0.00000   0.00000   0.19769
  10        6D 0       -0.00000   0.00000   0.00000   0.00000   0.00000
  11        6D+1        0.00000   0.00000   0.02703   0.00000   0.00000
  12        6D-1        0.00000   0.00000   0.00000   0.02703   0.00000
  13        6D+2        0.00000  -0.00000   0.00000   0.00000   0.00000
  14        6D-2        0.00000   0.00000   0.00000   0.00000   0.02703
  15 2   H  1S         -0.00000   0.18491   0.22452   0.22452   0.22452
  16        2S          0.00123   0.02855   0.09378   0.09378   0.09378
  17        3PX         0.00025  -0.01512  -0.01186   0.00124  -0.01186
  18        3PY         0.00025  -0.01512   0.00124  -0.01186  -0.01186
  19        3PZ         0.00025  -0.01512  -0.01186  -0.01186   0.00124
  20 3   H  1S         -0.00000   0.18491  -0.22452  -0.22452   0.22452
  21        2S          0.00123   0.02855  -0.09378  -0.09378   0.09378
  22        3PX        -0.00025   0.01512  -0.01186   0.00124   0.01186
  23        3PY        -0.00025   0.01512   0.00124  -0.01186   0.01186
  24        3PZ         0.00025  -0.01512   0.01186   0.01186   0.00124
  25 4   H  1S         -0.00000   0.18491   0.22452  -0.22452  -0.22452
  26        2S          0.00123   0.02855   0.09378  -0.09378  -0.09378
  27        3PX        -0.00025   0.01512   0.01186   0.00124  -0.01186
  28        3PY         0.00025  -0.01512   0.00124   0.01186   0.01186
  29        3PZ        -0.00025   0.01512   0.01186  -0.01186   0.00124
  30 5   H  1S         -0.00000   0.18491  -0.22452   0.22452  -0.22452
  31        2S          0.00123   0.02855  -0.09378   0.09378  -0.09378
  32        3PX         0.00025  -0.01512   0.01186   0.00124   0.01186
  33        3PY        -0.00025   0.01512   0.00124   0.01186  -0.01186
  34        3PZ        -0.00025   0.01512  -0.01186   0.01186   0.00124
                           6         7         8         9        10
                        (A1)--V   (T2)--V   (T2)--V   (T2)--V   (T2)--V
     Eigenvalues --     0.19302   0.27402   0.27402   0.27402   0.58946
   1 1   C  1S         -0.12911   0.00000   0.00000   0.00000   0.00000
   2        2S          0.07194   0.00000   0.00000   0.00000   0.00000
   3        3S          2.35448   0.00000   0.00000   0.00000   0.00000
   4        4PX         0.00000   0.00000   0.29801   0.00000   0.00000
   5        4PY         0.00000   0.00000   0.00000   0.29801   0.00000
   6        4PZ         0.00000   0.29801   0.00000   0.00000  -0.30346
   7        5PX         0.00000   0.00000   1.41447   0.00000   0.00000
   8        5PY         0.00000   0.00000   0.00000   1.41447   0.00000
   9        5PZ         0.00000   1.41447   0.00000   0.00000   1.21507
  10        6D 0       -0.00000   0.00000   0.00000   0.00000   0.00000
  11        6D+1        0.00000   0.00000   0.00000   0.02334   0.00000
  12        6D-1        0.00000   0.00000   0.02334   0.00000   0.00000
  13        6D+2       -0.00000   0.00000   0.00000   0.00000   0.00000
  14        6D-2        0.00000   0.02334   0.00000   0.00000  -0.12525
  15 2   H  1S         -0.01063  -0.02897  -0.02897  -0.02897  -0.47898
  16        2S         -0.84845  -1.30924  -1.30924  -1.30924   0.03736
  17        3PX         0.00800   0.01038   0.01027   0.01038  -0.01568
  18        3PY         0.00800   0.01038   0.01038   0.01027  -0.01568
  19        3PZ         0.00800   0.01027   0.01038   0.01038   0.01555
  20 3   H  1S         -0.01063  -0.02897   0.02897   0.02897  -0.47898
  21        2S         -0.84845  -1.30924   1.30924   1.30924   0.03736
  22        3PX        -0.00800  -0.01038   0.01027   0.01038   0.01568
  23        3PY        -0.00800  -0.01038   0.01038   0.01027   0.01568
  24        3PZ         0.00800   0.01027  -0.01038  -0.01038   0.01555
  25 4   H  1S         -0.01063   0.02897   0.02897  -0.02897   0.47898
  26        2S         -0.84845   1.30924   1.30924  -1.30924  -0.03736
  27        3PX        -0.00800   0.01038   0.01027  -0.01038  -0.01568
  28        3PY         0.00800  -0.01038  -0.01038   0.01027   0.01568
  29        3PZ        -0.00800   0.01027   0.01038  -0.01038   0.01555
  30 5   H  1S         -0.01063   0.02897  -0.02897   0.02897   0.47898
  31        2S         -0.84845   1.30924  -1.30924   1.30924  -0.03736
  32        3PX         0.00800  -0.01038   0.01027  -0.01038   0.01568
  33        3PY        -0.00800   0.01038  -0.01038   0.01027  -0.01568
  34        3PZ        -0.00800   0.01027  -0.01038   0.01038   0.01555
                          11        12        13        14        15
                        (T2)--V   (T2)--V   (T2)--V   (T2)--V   (T2)--V
     Eigenvalues --     0.58946   0.58946   0.88915   0.88915   0.88915
   1 1   C  1S          0.00000   0.00000   0.00000   0.00000   0.00000
   2        2S          0.00000   0.00000   0.00000   0.00000   0.00000
   3        3S          0.00000   0.00000   0.00000   0.00000   0.00000
   4        4PX         0.00000  -0.30346   0.00000  -0.83790   0.00000
   5        4PY        -0.30346   0.00000  -0.83790   0.00000   0.00000
   6        4PZ         0.00000   0.00000   0.00000   0.00000  -0.83790
   7        5PX         0.00000   1.21507   0.00000   1.72229   0.00000
   8        5PY         1.21507   0.00000   1.72229   0.00000   0.00000
   9        5PZ         0.00000   0.00000   0.00000   0.00000   1.72229
  10        6D 0        0.00000   0.00000   0.00000   0.00000   0.00000
  11        6D+1       -0.12525   0.00000   0.33965   0.00000   0.00000
  12        6D-1        0.00000  -0.12525   0.00000   0.33965   0.00000
  13        6D+2        0.00000   0.00000   0.00000   0.00000   0.00000
  14        6D-2        0.00000   0.00000   0.00000   0.00000   0.33965
  15 2   H  1S         -0.47898  -0.47898   0.20213   0.20213   0.20213
  16        2S          0.03736   0.03736  -1.04363  -1.04363  -1.04363
  17        3PX        -0.01568   0.01555   0.12656   0.04872   0.12656
  18        3PY         0.01555  -0.01568   0.04872   0.12656   0.12656
  19        3PZ        -0.01568  -0.01568   0.12656   0.12656   0.04872
  20 3   H  1S          0.47898   0.47898  -0.20213  -0.20213   0.20213
  21        2S         -0.03736  -0.03736   1.04363   1.04363  -1.04363
  22        3PX        -0.01568   0.01555   0.12656   0.04872  -0.12656
  23        3PY         0.01555  -0.01568   0.04872   0.12656  -0.12656
  24        3PZ         0.01568   0.01568  -0.12656  -0.12656   0.04872
  25 4   H  1S         -0.47898   0.47898   0.20213  -0.20213  -0.20213
  26        2S          0.03736  -0.03736  -1.04363   1.04363   1.04363
  27        3PX         0.01568   0.01555  -0.12656   0.04872   0.12656
  28        3PY         0.01555   0.01568   0.04872  -0.12656  -0.12656
  29        3PZ         0.01568  -0.01568  -0.12656   0.12656   0.04872
  30 5   H  1S          0.47898  -0.47898  -0.20213   0.20213  -0.20213
  31        2S         -0.03736   0.03736   1.04363  -1.04363   1.04363
  32        3PX         0.01568   0.01555  -0.12656   0.04872  -0.12656
  33        3PY         0.01555   0.01568   0.04872  -0.12656   0.12656
  34        3PZ        -0.01568   0.01568   0.12656  -0.12656   0.04872
                          16        17        18        19        20
                        (A1)--V   (E)--V    (E)--V    (A1)--V   (T1)--V
     Eigenvalues --     0.93366   1.13153   1.13153   1.25642   1.68587
   1 1   C  1S          0.08997  -0.00000   0.00000  -0.10587   0.00000
   2        2S         -0.82528  -0.00000   0.00000  -1.82996   0.00000
   3        3S          1.25208   0.00000  -0.00000   4.96045   0.00000
   4        4PX         0.00000   0.00000   0.00000   0.00000   0.00000
   5        4PY         0.00000   0.00000   0.00000   0.00000  -0.00000
   6        4PZ         0.00000   0.00000   0.00000   0.00000   0.00000
   7        5PX         0.00000   0.00000   0.00000   0.00000   0.00000
   8        5PY         0.00000   0.00000   0.00000   0.00000  -0.00000
   9        5PZ         0.00000   0.00000   0.00000   0.00000   0.00000
  10        6D 0       -0.00000  -0.21037   0.48739   0.00000   0.00000
  11        6D+1        0.00000   0.00000   0.00000   0.00000  -0.00000
  12        6D-1        0.00000   0.00000   0.00000   0.00000   0.00000
  13        6D+2        0.00000   0.48739   0.21037  -0.00000   0.00000
  14        6D-2        0.00000   0.00000   0.00000   0.00000   0.00000
  15 2   H  1S          0.53931  -0.00000   0.00000  -0.60026   0.00000
  16        2S         -0.49551  -0.00000   0.00000  -0.71095   0.00000
  17        3PX         0.10820   0.21701  -0.02532   0.03297   0.36934
  18        3PY         0.10820  -0.13043  -0.17528   0.03297   0.00000
  19        3PZ         0.10820  -0.08658   0.20059   0.03297  -0.36934
  20 3   H  1S          0.53931  -0.00000   0.00000  -0.60026  -0.00000
  21        2S         -0.49551  -0.00000   0.00000  -0.71095  -0.00000
  22        3PX        -0.10820  -0.21701   0.02532  -0.03297   0.36934
  23        3PY        -0.10820   0.13043   0.17528  -0.03297   0.00000
  24        3PZ         0.10820  -0.08658   0.20059   0.03297   0.36934
  25 4   H  1S          0.53931  -0.00000   0.00000  -0.60026   0.00000
  26        2S         -0.49551  -0.00000   0.00000  -0.71095   0.00000
  27        3PX        -0.10820  -0.21701   0.02532  -0.03297  -0.36934
  28        3PY         0.10820  -0.13043  -0.17528   0.03297   0.00000
  29        3PZ        -0.10820   0.08658  -0.20059  -0.03297   0.36934
  30 5   H  1S          0.53931  -0.00000   0.00000  -0.60026  -0.00000
  31        2S         -0.49551  -0.00000   0.00000  -0.71095  -0.00000
  32        3PX         0.10820   0.21701  -0.02532   0.03297  -0.36934
  33        3PY        -0.10820   0.13043   0.17528  -0.03297   0.00000
  34        3PZ        -0.10820   0.08658  -0.20059  -0.03297  -0.36934
                          21        22        23        24        25
                        (T1)--V   (T1)--V   (T2)--V   (T2)--V   (T2)--V
     Eigenvalues --     1.68587   1.68587   1.89352   1.89352   1.89352
   1 1   C  1S          0.00000   0.00000   0.00000   0.00000   0.00000
   2        2S          0.00000   0.00000   0.00000   0.00000   0.00000
   3        3S          0.00000   0.00000   0.00000   0.00000   0.00000
   4        4PX         0.00000  -0.00000   0.00000   0.00000  -0.05242
   5        4PY         0.00000   0.00000   0.00000  -0.05242   0.00000
   6        4PZ         0.00000   0.00000  -0.05242   0.00000   0.00000
   7        5PX         0.00000  -0.00000   0.00000   0.00000   1.00179
   8        5PY         0.00000   0.00000   0.00000   1.00179   0.00000
   9        5PZ         0.00000   0.00000   1.00179   0.00000   0.00000
  10        6D 0        0.00000   0.00000   0.00000   0.00000   0.00000
  11        6D+1        0.00000   0.00000   0.00000   0.66247   0.00000
  12        6D-1        0.00000  -0.00000   0.00000   0.00000   0.66247
  13        6D+2        0.00000   0.00000   0.00000   0.00000   0.00000
  14        6D-2        0.00000   0.00000   0.66247   0.00000   0.00000
  15 2   H  1S         -0.00000   0.00000  -0.46049  -0.46049  -0.46049
  16        2S         -0.00000   0.00000  -0.07655  -0.07655  -0.07655
  17        3PX         0.36934   0.00000  -0.01315  -0.01315  -0.36941
  18        3PY        -0.36934   0.36934  -0.01315  -0.36941  -0.01315
  19        3PZ        -0.00000  -0.36934  -0.36941  -0.01315  -0.01315
  20 3   H  1S         -0.00000  -0.00000  -0.46049   0.46049   0.46049
  21        2S         -0.00000  -0.00000  -0.07655   0.07655   0.07655
  22        3PX        -0.36934   0.00000   0.01315  -0.01315  -0.36941
  23        3PY         0.36934   0.36934   0.01315  -0.36941  -0.01315
  24        3PZ        -0.00000   0.36934  -0.36941   0.01315   0.01315
  25 4   H  1S          0.00000  -0.00000   0.46049  -0.46049   0.46049
  26        2S          0.00000  -0.00000   0.07655  -0.07655   0.07655
  27        3PX         0.36934   0.00000  -0.01315   0.01315  -0.36941
  28        3PY         0.36934  -0.36934   0.01315  -0.36941   0.01315
  29        3PZ        -0.00000  -0.36934  -0.36941   0.01315  -0.01315
  30 5   H  1S          0.00000   0.00000   0.46049   0.46049  -0.46049
  31        2S          0.00000   0.00000   0.07655   0.07655  -0.07655
  32        3PX        -0.36934   0.00000   0.01315   0.01315  -0.36941
  33        3PY        -0.36934  -0.36934  -0.01315  -0.36941   0.01315
  34        3PZ        -0.00000   0.36934  -0.36941  -0.01315   0.01315
                          26        27        28        29        30
                        (T2)--V   (T2)--V   (T2)--V   (E)--V    (E)--V
     Eigenvalues --     2.21119   2.21119   2.21119   2.54334   2.54334
   1 1   C  1S          0.00000   0.00000   0.00000  -0.00000   0.00000
   2        2S          0.00000   0.00000   0.00000  -0.00000  -0.00000
   3        3S          0.00000   0.00000   0.00000   0.00000  -0.00000
   4        4PX         0.00000   0.00000  -0.26447   0.00000   0.00000
   5        4PY        -0.26447   0.00000   0.00000   0.00000   0.00000
   6        4PZ         0.00000  -0.26447   0.00000   0.00000   0.00000
   7        5PX         0.00000   0.00000  -0.68188   0.00000   0.00000
   8        5PY        -0.68188   0.00000   0.00000   0.00000   0.00000
   9        5PZ         0.00000  -0.68188   0.00000   0.00000   0.00000
  10        6D 0        0.00000   0.00000   0.00000   1.29387  -0.31276
  11        6D+1        0.82969   0.00000   0.00000   0.00000   0.00000
  12        6D-1        0.00000   0.00000   0.82969   0.00000   0.00000
  13        6D+2        0.00000   0.00000   0.00000   0.31276   1.29387
  14        6D-2        0.00000   0.82969   0.00000   0.00000   0.00000
  15 2   H  1S         -0.11446  -0.11446  -0.11446  -0.00000   0.00000
  16        2S          0.32544   0.32544   0.32544  -0.00000   0.00000
  17        3PX        -0.29741  -0.29741   0.41993   0.14895  -0.50574
  18        3PY         0.41993  -0.29741  -0.29741   0.36351   0.38187
  19        3PZ        -0.29741   0.41993  -0.29741  -0.51246   0.12388
  20 3   H  1S          0.11446  -0.11446   0.11446  -0.00000   0.00000
  21        2S         -0.32544   0.32544  -0.32544  -0.00000   0.00000
  22        3PX        -0.29741   0.29741   0.41993  -0.14895   0.50574
  23        3PY         0.41993   0.29741  -0.29741  -0.36351  -0.38187
  24        3PZ         0.29741   0.41993   0.29741  -0.51246   0.12388
  25 4   H  1S         -0.11446   0.11446   0.11446  -0.00000   0.00000
  26        2S          0.32544  -0.32544  -0.32544  -0.00000   0.00000
  27        3PX         0.29741  -0.29741   0.41993  -0.14895   0.50574
  28        3PY         0.41993   0.29741   0.29741   0.36351   0.38187
  29        3PZ         0.29741   0.41993  -0.29741   0.51246  -0.12388
  30 5   H  1S          0.11446   0.11446  -0.11446  -0.00000   0.00000
  31        2S         -0.32544  -0.32544   0.32544  -0.00000   0.00000
  32        3PX         0.29741   0.29741   0.41993   0.14895  -0.50574
  33        3PY         0.41993  -0.29741   0.29741  -0.36351  -0.38187
  34        3PZ        -0.29741   0.41993   0.29741   0.51246  -0.12388
                          31        32        33        34
                        (A1)--V   (T2)--V   (T2)--V   (T2)--V
     Eigenvalues --     2.74880   2.79425   2.79425   2.79425
   1 1   C  1S         -0.04911   0.00000   0.00000   0.00000
   2        2S          1.53884   0.00000   0.00000   0.00000
   3        3S          1.60729   0.00000   0.00000   0.00000
   4        4PX         0.00000   0.00000   0.00000   1.39973
   5        4PY         0.00000   1.39973   0.00000   0.00000
   6        4PZ         0.00000   0.00000   1.39973   0.00000
   7        5PX         0.00000   0.00000   0.00000   0.93932
   8        5PY         0.00000   0.93932   0.00000   0.00000
   9        5PZ         0.00000   0.00000   0.93932   0.00000
  10        6D 0        0.00000   0.00000   0.00000   0.00000
  11        6D+1        0.00000   1.40480   0.00000   0.00000
  12        6D-1        0.00000   0.00000   0.00000   1.40480
  13        6D+2        0.00000   0.00000   0.00000   0.00000
  14        6D-2        0.00000   0.00000   1.40480   0.00000
  15 2   H  1S         -0.63281  -0.90966  -0.90966  -0.90966
  16        2S         -0.28857  -0.41290  -0.41290  -0.41290
  17        3PX         0.46750   0.46763   0.46763   0.50490
  18        3PY         0.46750   0.50490   0.46763   0.46763
  19        3PZ         0.46750   0.46763   0.50490   0.46763
  20 3   H  1S         -0.63281   0.90966  -0.90966   0.90966
  21        2S         -0.28857   0.41290  -0.41290   0.41290
  22        3PX        -0.46750   0.46763  -0.46763   0.50490
  23        3PY        -0.46750   0.50490  -0.46763   0.46763
  24        3PZ         0.46750  -0.46763   0.50490  -0.46763
  25 4   H  1S         -0.63281  -0.90966   0.90966   0.90966
  26        2S         -0.28857  -0.41290   0.41290   0.41290
  27        3PX        -0.46750  -0.46763   0.46763   0.50490
  28        3PY         0.46750   0.50490  -0.46763  -0.46763
  29        3PZ        -0.46750  -0.46763   0.50490   0.46763
  30 5   H  1S         -0.63281   0.90966   0.90966  -0.90966
  31        2S         -0.28857   0.41290   0.41290  -0.41290
  32        3PX         0.46750  -0.46763  -0.46763   0.50490
  33        3PY        -0.46750   0.50490   0.46763  -0.46763
  34        3PZ        -0.46750   0.46763   0.50490  -0.46763
     Density Matrix:
                           1         2         3         4         5
   1 1   C  1S          2.05995
   2        2S         -0.09973   0.26496
   3        3S         -0.10568   0.17225   0.11281
   4        4PX         0.00000   0.00000   0.00000   0.35838
   5        4PY         0.00000   0.00000   0.00000   0.00000   0.35838
   6        4PZ         0.00000   0.00000   0.00000   0.00000   0.00000
   7        5PX         0.00000   0.00000   0.00000   0.16737   0.00000
   8        5PY         0.00000   0.00000   0.00000   0.00000   0.16737
   9        5PZ         0.00000   0.00000   0.00000   0.00000   0.00000
  10        6D 0        0.00000  -0.00000  -0.00000   0.00000   0.00000
  11        6D+1       -0.00000   0.00000   0.00000  -0.00000   0.02289
  12        6D-1       -0.00000  -0.00000  -0.00000   0.02289   0.00000
  13        6D+2        0.00000   0.00000   0.00000  -0.00000   0.00000
  14        6D-2       -0.00000   0.00000   0.00000   0.00000   0.00000
  15 2   H  1S         -0.06957   0.13443   0.08777   0.19008   0.19008
  16        2S         -0.00829   0.02080   0.01353   0.07939   0.07939
  17        3PX         0.00619  -0.01098  -0.00718   0.00105  -0.01004
  18        3PY         0.00619  -0.01098  -0.00718  -0.01004   0.00105
  19        3PZ         0.00619  -0.01098  -0.00718  -0.01004  -0.01004
  20 3   H  1S         -0.06957   0.13443   0.08777  -0.19008  -0.19008
  21        2S         -0.00829   0.02080   0.01353  -0.07939  -0.07939
  22        3PX        -0.00619   0.01098   0.00718   0.00105  -0.01004
  23        3PY        -0.00619   0.01098   0.00718  -0.01004   0.00105
  24        3PZ         0.00619  -0.01098  -0.00718   0.01004   0.01004
  25 4   H  1S         -0.06957   0.13443   0.08777  -0.19008   0.19008
  26        2S         -0.00829   0.02080   0.01353  -0.07939   0.07939
  27        3PX        -0.00619   0.01098   0.00718   0.00105   0.01004
  28        3PY         0.00619  -0.01098  -0.00718   0.01004   0.00105
  29        3PZ        -0.00619   0.01098   0.00718  -0.01004   0.01004
  30 5   H  1S         -0.06957   0.13443   0.08777   0.19008  -0.19008
  31        2S         -0.00829   0.02080   0.01353   0.07939  -0.07939
  32        3PX         0.00619  -0.01098  -0.00718   0.00105   0.01004
  33        3PY        -0.00619   0.01098   0.00718   0.01004   0.00105
  34        3PZ        -0.00619   0.01098   0.00718   0.01004  -0.01004
                           6         7         8         9        10
   6        4PZ         0.35838
   7        5PX         0.00000   0.07816
   8        5PY         0.00000   0.00000   0.07816
   9        5PZ         0.16737   0.00000   0.00000   0.07816
  10        6D 0       -0.00000   0.00000   0.00000  -0.00000   0.00000
  11        6D+1        0.00000  -0.00000   0.01069   0.00000   0.00000
  12        6D-1        0.00000   0.01069   0.00000   0.00000   0.00000
  13        6D+2       -0.00000  -0.00000   0.00000  -0.00000   0.00000
  14        6D-2        0.02289   0.00000   0.00000   0.01069  -0.00000
  15 2   H  1S          0.19008   0.08877   0.08877   0.08877   0.00000
  16        2S          0.07939   0.03708   0.03708   0.03708   0.00000
  17        3PX        -0.01004   0.00049  -0.00469  -0.00469  -0.00000
  18        3PY        -0.01004  -0.00469   0.00049  -0.00469  -0.00000
  19        3PZ         0.00105  -0.00469  -0.00469   0.00049  -0.00000
  20 3   H  1S          0.19008  -0.08877  -0.08877   0.08877  -0.00000
  21        2S          0.07939  -0.03708  -0.03708   0.03708  -0.00000
  22        3PX         0.01004   0.00049  -0.00469   0.00469  -0.00000
  23        3PY         0.01004  -0.00469   0.00049   0.00469  -0.00000
  24        3PZ         0.00105   0.00469   0.00469   0.00049   0.00000
  25 4   H  1S         -0.19008  -0.08877   0.08877  -0.08877   0.00000
  26        2S         -0.07939  -0.03708   0.03708  -0.03708   0.00000
  27        3PX        -0.01004   0.00049   0.00469  -0.00469   0.00000
  28        3PY         0.01004   0.00469   0.00049   0.00469   0.00000
  29        3PZ         0.00105  -0.00469   0.00469   0.00049  -0.00000
  30 5   H  1S         -0.19008   0.08877  -0.08877  -0.08877   0.00000
  31        2S         -0.07939   0.03708  -0.03708  -0.03708   0.00000
  32        3PX         0.01004   0.00049   0.00469   0.00469   0.00000
  33        3PY        -0.01004   0.00469   0.00049  -0.00469   0.00000
  34        3PZ         0.00105   0.00469  -0.00469   0.00049   0.00000
                          11        12        13        14        15
  11        6D+1        0.00146
  12        6D-1        0.00000   0.00146
  13        6D+2        0.00000  -0.00000   0.00000
  14        6D-2        0.00000   0.00000  -0.00000   0.00146
  15 2   H  1S          0.01214   0.01214  -0.00000   0.01214   0.37084
  16        2S          0.00507   0.00507  -0.00000   0.00507   0.13689
  17        3PX        -0.00064   0.00007   0.00000  -0.00064  -0.01568
  18        3PY         0.00007  -0.00064   0.00000  -0.00064  -0.01568
  19        3PZ        -0.00064  -0.00064  -0.00000   0.00007  -0.01568
  20 3   H  1S         -0.01214  -0.01214  -0.00000   0.01214  -0.03244
  21        2S         -0.00507  -0.00507  -0.00000   0.00507  -0.03155
  22        3PX        -0.00064   0.00007  -0.00000   0.00064   0.00615
  23        3PY         0.00007  -0.00064  -0.00000   0.00064   0.00615
  24        3PZ         0.00064   0.00064  -0.00000   0.00007   0.00562
  25 4   H  1S          0.01214  -0.01214   0.00000  -0.01214  -0.03244
  26        2S          0.00507  -0.00507   0.00000  -0.00507  -0.03155
  27        3PX         0.00064   0.00007   0.00000  -0.00064   0.00615
  28        3PY         0.00007   0.00064  -0.00000   0.00064   0.00562
  29        3PZ         0.00064  -0.00064   0.00000   0.00007   0.00615
  30 5   H  1S         -0.01214   0.01214   0.00000  -0.01214  -0.03244
  31        2S         -0.00507   0.00507   0.00000  -0.00507  -0.03155
  32        3PX         0.00064   0.00007  -0.00000   0.00064   0.00562
  33        3PY         0.00007   0.00064   0.00000  -0.00064   0.00615
  34        3PZ        -0.00064   0.00064  -0.00000   0.00007   0.00615
                          16        17        18        19        20
  16        2S          0.05440
  17        3PX        -0.00508   0.00102
  18        3PY        -0.00508   0.00068   0.00102
  19        3PZ        -0.00508   0.00068   0.00068   0.00102
  20 3   H  1S         -0.03155  -0.00615  -0.00615   0.00562   0.37084
  21        2S         -0.01596  -0.00109  -0.00109   0.00382   0.13689
  22        3PX         0.00109  -0.00045  -0.00080  -0.00018   0.01568
  23        3PY         0.00109  -0.00080  -0.00045  -0.00018   0.01568
  24        3PZ         0.00382   0.00018   0.00018  -0.00010  -0.01568
  25 4   H  1S         -0.03155  -0.00615   0.00562  -0.00615  -0.03244
  26        2S         -0.01596  -0.00109   0.00382  -0.00109  -0.03155
  27        3PX         0.00109  -0.00045  -0.00018  -0.00080  -0.00562
  28        3PY         0.00382   0.00018  -0.00010   0.00018  -0.00615
  29        3PZ         0.00109  -0.00080  -0.00018  -0.00045   0.00615
  30 5   H  1S         -0.03155   0.00562  -0.00615  -0.00615  -0.03244
  31        2S         -0.01596   0.00382  -0.00109  -0.00109  -0.03155
  32        3PX         0.00382  -0.00010   0.00018   0.00018  -0.00615
  33        3PY         0.00109  -0.00018  -0.00045  -0.00080  -0.00562
  34        3PZ         0.00109  -0.00018  -0.00080  -0.00045   0.00615
                          21        22        23        24        25
  21        2S          0.05440
  22        3PX         0.00508   0.00102
  23        3PY         0.00508   0.00068   0.00102
  24        3PZ        -0.00508  -0.00068  -0.00068   0.00102
  25 4   H  1S         -0.03155  -0.00562   0.00615  -0.00615   0.37084
  26        2S         -0.01596  -0.00382   0.00109  -0.00109   0.13689
  27        3PX        -0.00382  -0.00010   0.00018  -0.00018   0.01568
  28        3PY        -0.00109  -0.00018  -0.00045   0.00080  -0.01568
  29        3PZ         0.00109   0.00018   0.00080  -0.00045   0.01568
  30 5   H  1S         -0.03155   0.00615  -0.00562  -0.00615  -0.03244
  31        2S         -0.01596   0.00109  -0.00382  -0.00109  -0.03155
  32        3PX        -0.00109  -0.00045  -0.00018   0.00080  -0.00615
  33        3PY        -0.00382   0.00018  -0.00010  -0.00018   0.00615
  34        3PZ         0.00109   0.00080   0.00018  -0.00045  -0.00562
                          26        27        28        29        30
  26        2S          0.05440
  27        3PX         0.00508   0.00102
  28        3PY        -0.00508  -0.00068   0.00102
  29        3PZ         0.00508   0.00068  -0.00068   0.00102
  30 5   H  1S         -0.03155   0.00615  -0.00615  -0.00562   0.37084
  31        2S         -0.01596   0.00109  -0.00109  -0.00382   0.13689
  32        3PX        -0.00109  -0.00045   0.00080  -0.00018  -0.01568
  33        3PY         0.00109   0.00080  -0.00045   0.00018   0.01568
  34        3PZ        -0.00382   0.00018  -0.00018  -0.00010   0.01568
                          31        32        33        34
  31        2S          0.05440
  32        3PX        -0.00508   0.00102
  33        3PY         0.00508  -0.00068   0.00102
  34        3PZ         0.00508  -0.00068   0.00068   0.00102
    Full Mulliken population analysis:
                           1         2         3         4         5
   1 1   C  1S          2.05995
   2        2S         -0.02056   0.26496
   3        3S         -0.01898   0.13787   0.11281
   4        4PX         0.00000   0.00000   0.00000   0.35838
   5        4PY         0.00000   0.00000   0.00000   0.00000   0.35838
   6        4PZ         0.00000   0.00000   0.00000   0.00000   0.00000
   7        5PX         0.00000   0.00000   0.00000   0.08883   0.00000
   8        5PY         0.00000   0.00000   0.00000   0.00000   0.08883
   9        5PZ         0.00000   0.00000   0.00000   0.00000   0.00000
  10        6D 0        0.00000   0.00000   0.00000   0.00000   0.00000
  11        6D+1       -0.00000   0.00000   0.00000   0.00000   0.00000
  12        6D-1       -0.00000  -0.00000  -0.00000   0.00000   0.00000
  13        6D+2        0.00000  -0.00000  -0.00000   0.00000   0.00000
  14        6D-2       -0.00000   0.00000   0.00000   0.00000   0.00000
  15 2   H  1S         -0.00365   0.04554   0.04031   0.04325   0.04325
  16        2S         -0.00074   0.00984   0.00996   0.00959   0.00959
  17        3PX        -0.00036   0.00256   0.00101   0.00001   0.00212
  18        3PY        -0.00036   0.00256   0.00101   0.00212   0.00001
  19        3PZ        -0.00036   0.00256   0.00101   0.00212   0.00212
  20 3   H  1S         -0.00365   0.04554   0.04031   0.04325   0.04325
  21        2S         -0.00074   0.00984   0.00996   0.00959   0.00959
  22        3PX        -0.00036   0.00256   0.00101   0.00001   0.00212
  23        3PY        -0.00036   0.00256   0.00101   0.00212   0.00001
  24        3PZ        -0.00036   0.00256   0.00101   0.00212   0.00212
  25 4   H  1S         -0.00365   0.04554   0.04031   0.04325   0.04325
  26        2S         -0.00074   0.00984   0.00996   0.00959   0.00959
  27        3PX        -0.00036   0.00256   0.00101   0.00001   0.00212
  28        3PY        -0.00036   0.00256   0.00101   0.00212   0.00001
  29        3PZ        -0.00036   0.00256   0.00101   0.00212   0.00212
  30 5   H  1S         -0.00365   0.04554   0.04031   0.04325   0.04325
  31        2S         -0.00074   0.00984   0.00996   0.00959   0.00959
  32        3PX        -0.00036   0.00256   0.00101   0.00001   0.00212
  33        3PY        -0.00036   0.00256   0.00101   0.00212   0.00001
  34        3PZ        -0.00036   0.00256   0.00101   0.00212   0.00212
                           6         7         8         9        10
   6        4PZ         0.35838
   7        5PX         0.00000   0.07816
   8        5PY         0.00000   0.00000   0.07816
   9        5PZ         0.08883   0.00000   0.00000   0.07816
  10        6D 0        0.00000   0.00000   0.00000   0.00000   0.00000
  11        6D+1        0.00000   0.00000   0.00000   0.00000   0.00000
  12        6D-1        0.00000   0.00000   0.00000   0.00000   0.00000
  13        6D+2        0.00000   0.00000   0.00000   0.00000   0.00000
  14        6D-2        0.00000   0.00000   0.00000   0.00000   0.00000
  15 2   H  1S          0.04325   0.02890   0.02890   0.02890   0.00000
  16        2S          0.00959   0.01139   0.01139   0.01139   0.00000
  17        3PX         0.00212   0.00009   0.00049   0.00049   0.00000
  18        3PY         0.00212   0.00049   0.00009   0.00049   0.00000
  19        3PZ         0.00001   0.00049   0.00049   0.00009  -0.00000
  20 3   H  1S          0.04325   0.02890   0.02890   0.02890  -0.00000
  21        2S          0.00959   0.01139   0.01139   0.01139  -0.00000
  22        3PX         0.00212   0.00009   0.00049   0.00049  -0.00000
  23        3PY         0.00212   0.00049   0.00009   0.00049  -0.00000
  24        3PZ         0.00001   0.00049   0.00049   0.00009   0.00000
  25 4   H  1S          0.04325   0.02890   0.02890   0.02890   0.00000
  26        2S          0.00959   0.01139   0.01139   0.01139   0.00000
  27        3PX         0.00212   0.00009   0.00049   0.00049   0.00000
  28        3PY         0.00212   0.00049   0.00009   0.00049  -0.00000
  29        3PZ         0.00001   0.00049   0.00049   0.00009   0.00000
  30 5   H  1S          0.04325   0.02890   0.02890   0.02890   0.00000
  31        2S          0.00959   0.01139   0.01139   0.01139   0.00000
  32        3PX         0.00212   0.00009   0.00049   0.00049  -0.00000
  33        3PY         0.00212   0.00049   0.00009   0.00049   0.00000
  34        3PZ         0.00001   0.00049   0.00049   0.00009  -0.00000
                          11        12        13        14        15
  11        6D+1        0.00146
  12        6D-1        0.00000   0.00146
  13        6D+2        0.00000   0.00000   0.00000
  14        6D-2        0.00000   0.00000   0.00000   0.00146
  15 2   H  1S          0.00283   0.00283   0.00000   0.00283   0.37084
  16        2S          0.00023   0.00023   0.00000   0.00023   0.09375
  17        3PX        -0.00002  -0.00002   0.00000  -0.00002   0.00000
  18        3PY        -0.00002  -0.00002  -0.00000  -0.00002   0.00000
  19        3PZ        -0.00002  -0.00002  -0.00000  -0.00002   0.00000
  20 3   H  1S          0.00283   0.00283   0.00000   0.00283  -0.00188
  21        2S          0.00023   0.00023   0.00000   0.00023  -0.00715
  22        3PX        -0.00002  -0.00002   0.00000  -0.00002   0.00033
  23        3PY        -0.00002  -0.00002  -0.00000  -0.00002   0.00033
  24        3PZ        -0.00002  -0.00002  -0.00000  -0.00002   0.00000
  25 4   H  1S          0.00283   0.00283   0.00000   0.00283  -0.00188
  26        2S          0.00023   0.00023   0.00000   0.00023  -0.00715
  27        3PX        -0.00002  -0.00002  -0.00000  -0.00002   0.00033
  28        3PY        -0.00002  -0.00002   0.00000  -0.00002   0.00000
  29        3PZ        -0.00002  -0.00002   0.00000  -0.00002   0.00033
  30 5   H  1S          0.00283   0.00283  -0.00000   0.00283  -0.00188
  31        2S          0.00023   0.00023   0.00000   0.00023  -0.00715
  32        3PX        -0.00002  -0.00002  -0.00000  -0.00002  -0.00000
  33        3PY        -0.00002  -0.00002   0.00000  -0.00002   0.00033
  34        3PZ        -0.00002  -0.00002  -0.00000  -0.00002   0.00033
                          16        17        18        19        20
  16        2S          0.05440
  17        3PX         0.00000   0.00102
  18        3PY         0.00000   0.00000   0.00102
  19        3PZ         0.00000   0.00000   0.00000   0.00102
  20 3   H  1S         -0.00715   0.00033   0.00033  -0.00000   0.37084
  21        2S         -0.00800   0.00011   0.00011  -0.00000   0.09375
  22        3PX         0.00011   0.00002   0.00005   0.00000   0.00000
  23        3PY         0.00011   0.00005   0.00002   0.00000   0.00000
  24        3PZ         0.00000  -0.00000  -0.00000  -0.00000   0.00000
  25 4   H  1S         -0.00715   0.00033  -0.00000   0.00033  -0.00188
  26        2S         -0.00800   0.00011  -0.00000   0.00011  -0.00715
  27        3PX         0.00011   0.00002   0.00000   0.00005  -0.00000
  28        3PY         0.00000  -0.00000  -0.00000  -0.00000   0.00033
  29        3PZ         0.00011   0.00005   0.00000   0.00002   0.00033
  30 5   H  1S         -0.00715   0.00000   0.00033   0.00033  -0.00188
  31        2S         -0.00800   0.00000   0.00011   0.00011  -0.00715
  32        3PX        -0.00000  -0.00000   0.00000   0.00000   0.00033
  33        3PY         0.00011  -0.00000   0.00002   0.00005  -0.00000
  34        3PZ         0.00011  -0.00000   0.00005   0.00002   0.00033
                          21        22        23        24        25
  21        2S          0.05440
  22        3PX         0.00000   0.00102
  23        3PY         0.00000   0.00000   0.00102
  24        3PZ         0.00000  -0.00000  -0.00000   0.00102
  25 4   H  1S         -0.00715   0.00000   0.00033   0.00033   0.37084
  26        2S         -0.00800   0.00000   0.00011   0.00011   0.09375
  27        3PX        -0.00000  -0.00000   0.00000   0.00000   0.00000
  28        3PY         0.00011  -0.00000   0.00002   0.00005   0.00000
  29        3PZ         0.00011  -0.00000   0.00005   0.00002   0.00000
  30 5   H  1S         -0.00715   0.00033  -0.00000   0.00033  -0.00188
  31        2S         -0.00800   0.00011  -0.00000   0.00011  -0.00715
  32        3PX         0.00011   0.00002  -0.00000   0.00005   0.00033
  33        3PY        -0.00000   0.00000  -0.00000  -0.00000   0.00033
  34        3PZ         0.00011   0.00005   0.00000   0.00002   0.00000
                          26        27        28        29        30
  26        2S          0.05440
  27        3PX         0.00000   0.00102
  28        3PY         0.00000  -0.00000   0.00102
  29        3PZ         0.00000   0.00000  -0.00000   0.00102
  30 5   H  1S         -0.00715   0.00033   0.00033   0.00000   0.37084
  31        2S         -0.00800   0.00011   0.00011   0.00000   0.09375
  32        3PX         0.00011   0.00002   0.00005  -0.00000   0.00000
  33        3PY         0.00011   0.00005   0.00002   0.00000   0.00000
  34        3PZ         0.00000   0.00000  -0.00000  -0.00000   0.00000
                          31        32        33        34
  31        2S          0.05440
  32        3PX         0.00000   0.00102
  33        3PY         0.00000  -0.00000   0.00102
  34        3PZ         0.00000  -0.00000   0.00000   0.00102
     Gross orbital populations:
                           1
   1 1   C  1S          1.99856
   2        2S          0.63447
   3        3S          0.44490
   4        4PX         0.67561
   5        4PY         0.67561
   6        4PZ         0.67561
   7        5PX         0.33240
   8        5PY         0.33240
   9        5PZ         0.33240
  10        6D 0        0.00000
  11        6D+1        0.01351
  12        6D-1        0.01351
  13        6D+2        0.00000
  14        6D-2        0.01351
  15 2   H  1S          0.74665
  16        2S          0.18607
  17        3PX         0.01055
  18        3PY         0.01055
  19        3PZ         0.01055
  20 3   H  1S          0.74665
  21        2S          0.18607
  22        3PX         0.01055
  23        3PY         0.01055
  24        3PZ         0.01055
  25 4   H  1S          0.74665
  26        2S          0.18607
  27        3PX         0.01055
  28        3PY         0.01055
  29        3PZ         0.01055
  30 5   H  1S          0.74665
  31        2S          0.18607
  32        3PX         0.01055
  33        3PY         0.01055
  34        3PZ         0.01055
          Condensed to atoms (all electrons):
              1          2          3          4          5
     1  C    4.481361   0.415284   0.415284   0.415284   0.415284
     2  H    0.415284   0.615802  -0.022237  -0.022237  -0.022237
     3  H    0.415284  -0.022237   0.615802  -0.022237  -0.022237
     4  H    0.415284  -0.022237  -0.022237   0.615802  -0.022237
     5  H    0.415284  -0.022237  -0.022237  -0.022237   0.615802
 Mulliken atomic charges:
              1
     1  C   -0.142498
     2  H    0.035625
     3  H    0.035625
     4  H    0.035625
     5  H    0.035625
 Sum of Mulliken atomic charges =  -0.00000
 Mulliken charges with hydrogens summed into heavy atoms:
              1
     1  C   -0.000000
 Sum of Mulliken charges with hydrogens summed into heavy atoms =  -0.00000
 Electronic spatial extent (au):  <R**2>=             35.6100
 Charge=             -0.0000 electrons
 Dipole moment (field-independent basis, Debye):
    X=             -0.0000    Y=             -0.0000    Z=             -0.0000  Tot=              0.0000
 Quadrupole moment (field-independent basis, Debye-Ang):
   XX=             -8.3567   YY=             -8.3567   ZZ=             -8.3567
   XY=             -0.0000   XZ=             -0.0000   YZ=             -0.0000
 Traceless Quadrupole moment (field-independent basis, Debye-Ang):
   XX=              0.0000   YY=              0.0000   ZZ=             -0.0000
   XY=             -0.0000   XZ=             -0.0000   YZ=             -0.0000
 Octapole moment (field-independent basis, Debye-Ang**2):
  XXX=             -0.0000  YYY=              0.0000  ZZZ=             -0.0000  XYY=              0.0000
  XXY=             -0.0000  XXZ=              0.0000  XZZ=              0.0000  YZZ=             -0.0000
  YYZ=             -0.0000  XYZ=              0.6318
 Hexadecapole moment (field-independent basis, Debye-Ang**3):
 XXXX=            -16.1377 YYYY=            -16.1377 ZZZZ=            -16.1377 XXXY=              0.0000
 XXXZ=             -0.0000 YYYX=             -0.0000 YYYZ=             -0.0000 ZZZX=             -0.0000
 ZZZY=             -0.0000 XXYY=             -4.8812 XXZZ=             -4.8812 YYZZ=             -4.8812
 XXYZ=             -0.0000 YYXZ=             -0.0000 ZZXY=             -0.0000
 N-N= 1.343538919541D+01 E-N=-1.197996987292D+02  KE= 4.010333179334D+01
 Symmetry A    KE= 3.449263638741D+01
 Symmetry B1   KE= 1.870231801976D+00
 Symmetry B2   KE= 1.870231801976D+00
 Symmetry B3   KE= 1.870231801976D+00
 Orbital energies and kinetic energies (alpha):
                                 1                 2
   1         (A1)--O         -11.216211         16.026322
   2         (A1)--O          -0.942011          1.219996
   3         (T2)--O          -0.542565          0.935116
   4         (T2)--O          -0.542565          0.935116
   5         (T2)--O          -0.542565          0.935116
   6         (A1)--V           0.193025          0.610578
   7         (T2)--V           0.274023          0.575365
   8         (T2)--V           0.274023          0.575365
   9         (T2)--V           0.274023          0.575365
  10         (T2)--V           0.589463          1.110050
  11         (T2)--V           0.589463          1.110050
  12         (T2)--V           0.589463          1.110050
  13         (T2)--V           0.889147          2.099946
  14         (T2)--V           0.889147          2.099946
  15         (T2)--V           0.889147          2.099946
  16         (A1)--V           0.933658          2.203223
  17         (E)--V            1.131528          1.627261
  18         (E)--V            1.131528          1.627261
  19         (A1)--V           1.256417          1.858008
  20         (T1)--V           1.685873          2.037092
  21         (T1)--V           1.685873          2.037092
  22         (T1)--V           1.685873          2.037092
  23         (T2)--V           1.893522          2.433774
  24         (T2)--V           1.893522          2.433774
  25         (T2)--V           1.893522          2.433774
  26         (T2)--V           2.211186          2.669201
  27         (T2)--V           2.211186          2.669201
  28         (T2)--V           2.211186          2.669201
  29         (E)--V            2.543344          2.990931
  30         (E)--V            2.543344          2.990931
  31         (A1)--V           2.748795          4.049979
  32         (T2)--V           2.794252          4.427555
  33         (T2)--V           2.794252          4.427555
  34         (T2)--V           2.794252          4.427555
 Total kinetic energy from orbitals= 4.010333179334D+01
 No NMR shielding tensors so no spin-rotation constants.
 Leave Link  601 at Sun Aug 18 00:44:23 2024, MaxMem=   13107200 cpu:       0.1
 (Enter /programs/64bit/g09/g09-gfortran/bin/l701.exe)
 Compute integral first derivatives.
 ... and contract with generalized density number  0.
 Leave Link  701 at Sun Aug 18 00:44:23 2024, MaxMem=   13107200 cpu:       0.1
 (Enter /programs/64bit/g09/g09-gfortran/bin/l702.exe)
 L702 exits ... SP integral derivatives will be done elsewhere.
 Leave Link  702 at Sun Aug 18 00:44:23 2024, MaxMem=   13107200 cpu:       0.0
 (Enter /programs/64bit/g09/g09-gfortran/bin/l703.exe)
 Compute integral first derivatives, UseDBF=F ICtDFT=           0.
 Integral derivatives from FoFDir, PRISM(SPDF).
 Calling FoFJK, ICntrl=      2127 FMM=F ISym2X=1 I1Cent= 0 IOpClX= 0 NMat=1 NMatS=1 NMatT=0.
 FoFCou: FMM=F IPFlag=           0 FMFlag=      100000 FMFlg1=         800
         NFxFlg=           0 DoJE=F BraDBF=F KetDBF=F FulRan=T
         Omega=  0.000000  0.000000  1.000000  0.000000  0.000000 ICntrl=    2127 IOpCl=  0
         NMat0=    1 NMatS0=    1 NMatT0=    0 NMatD0=    1 NMtDS0=    0 NMtDT0=    0
         I1Cent=           0 NGrid=           0.
 Petite list used in FoFCou.
 Leave Link  703 at Sun Aug 18 00:44:24 2024, MaxMem=   13107200 cpu:       0.2
 (Enter /programs/64bit/g09/g09-gfortran/bin/l716.exe)
 Dipole        = 0.00000000D+00-4.44089210D-16-2.22044605D-16
 ***** Axes restored to original set *****
 -------------------------------------------------------------------
 Center     Atomic                   Forces (Hartrees/Bohr)
 Number     Number              X              Y              Z
 -------------------------------------------------------------------
      1        6          -0.000000000    0.000000000   -0.000000000
      2        1          -0.000000000   -0.000000000    0.000568113
      3        1           0.000535622   -0.000000000   -0.000189371
      4        1          -0.000267811   -0.000463862   -0.000189371
      5        1          -0.000267811    0.000463862   -0.000189371
 -------------------------------------------------------------------
 Cartesian Forces:  Max     0.000568113 RMS     0.000293372
 Leave Link  716 at Sun Aug 18 00:44:24 2024, MaxMem=   13107200 cpu:       0.0
 (Enter /programs/64bit/g09/g09-gfortran/bin/l103.exe)

 GradGradGradGradGradGradGradGradGradGradGradGradGradGradGradGradGradGrad
 Berny optimization.
 Internal  Forces:  Max     0.000568113 RMS     0.000303669
 Search for a local minimum.
 Step number   1 out of a maximum of   24
 All quantities printed in internal units (Hartrees-Bohrs-Radians)
 RMS Force = .30367D-03 SwitMx=.10000D-02 MixMth= 2
 Mixed Optimization -- En-DIIS/RFO-DIIS
 Second derivative matrix not updated -- first step.
 The second derivative matrix:
                          R1        R2        R3        R4        A1
           R1           0.34813
           R2           0.00000   0.34813
           R3           0.00000   0.00000   0.34813
           R4           0.00000   0.00000   0.00000   0.34813
           A1           0.00000   0.00000   0.00000   0.00000   0.16000
           A2           0.00000   0.00000   0.00000   0.00000   0.00000
           A3           0.00000   0.00000   0.00000   0.00000   0.00000
           A4           0.00000   0.00000   0.00000   0.00000   0.00000
           A5           0.00000   0.00000   0.00000   0.00000   0.00000
           A6           0.00000   0.00000   0.00000   0.00000   0.00000
           D1           0.00000   0.00000   0.00000   0.00000   0.00000
           D2           0.00000   0.00000   0.00000   0.00000   0.00000
           D3           0.00000   0.00000   0.00000   0.00000   0.00000
           D4           0.00000   0.00000   0.00000   0.00000   0.00000
                          A2        A3        A4        A5        A6
           A2           0.16000
           A3           0.00000   0.16000
           A4           0.00000   0.00000   0.16000
           A5           0.00000   0.00000   0.00000   0.16000
           A6           0.00000   0.00000   0.00000   0.00000   0.16000
           D1           0.00000   0.00000   0.00000   0.00000   0.00000
           D2           0.00000   0.00000   0.00000   0.00000   0.00000
           D3           0.00000   0.00000   0.00000   0.00000   0.00000
           D4           0.00000   0.00000   0.00000   0.00000   0.00000
                          D1        D2        D3        D4
           D1           0.00235
           D2           0.00000   0.00235
           D3           0.00000   0.00000   0.00235
           D4           0.00000   0.00000   0.00000   0.00235
     Eigenvalues ---    0.05086   0.05718   0.08643   0.16000   0.16000
     Eigenvalues ---    0.34813   0.34813   0.34813   0.348131000.00000
     Eigenvalues --- 1000.000001000.000001000.000001000.00000
 RFO step:  Lambda=-3.70844551D-06 EMin= 5.08565158D-02
 Linear search not attempted -- first point.
 Iteration  1 RMS(Cart)=  0.00087229 RMS(Int)=  0.00000000
 Iteration  2 RMS(Cart)=  0.00000000 RMS(Int)=  0.00000000
 ClnCor:  largest displacement from symmetrization is 8.65D-15 for atom     5.
 Variable       Old X    -DE/DX   Delta X   Delta X   Delta X     New X
                                 (Linear)    (Quad)   (Total)
    R1        2.05980   0.00057   0.00000   0.00163   0.00163   2.06143
    R2        2.05980   0.00057   0.00000   0.00163   0.00163   2.06143
    R3        2.05980   0.00057   0.00000   0.00163   0.00163   2.06143
    R4        2.05980   0.00057   0.00000   0.00163   0.00163   2.06143
    A1        1.91063   0.00000   0.00000  -0.00000   0.00000   1.91063
    A2        1.91063  -0.00000   0.00000  -0.00000  -0.00000   1.91063
    A3        1.91063  -0.00000   0.00000  -0.00000   0.00000   1.91063
    A4        1.91063  -0.00000   0.00000   0.00000  -0.00000   1.91063
    A5        1.91063   0.00000   0.00000   0.00000   0.00000   1.91063
    A6        1.91063   0.00000   0.00000   0.00000   0.00000   1.91063
    D1       -2.09440   0.00000   0.00000   0.00000   0.00000  -2.09440
    D2        2.09440  -0.00000   0.00000  -0.00000   0.00000   2.09440
    D3       -2.09440   0.00000   0.00000   0.00000   0.00000  -2.09440
    D4        2.09440   0.00000   0.00000   0.00000   0.00000   2.09440
         Item               Value     Threshold  Converged?
 Maximum Force            0.000568     0.000450     NO 
 RMS     Force            0.000304     0.000300     NO 
 Maximum Displacement     0.001632     0.001800     YES
 RMS     Displacement     0.000872     0.001200     YES
 Predicted change in Energy=-1.854223D-06
 GradGradGradGradGradGradGradGradGradGradGradGradGradGradGradGradGradGrad

 Leave Link  103 at Sun Aug 18 00:44:24 2024, MaxMem=   13107200 cpu:       0.0
 (Enter /programs/64bit/g09/g09-gfortran/bin/l202.exe)
                          Input orientation:                          
 ---------------------------------------------------------------------
 Center     Atomic      Atomic             Coordinates (Angstroms)
 Number     Number       Type             X           Y           Z
 ---------------------------------------------------------------------
      1          6           0        0.000000    0.000000   -0.000000
      2          1           0        0.000000    0.000000    1.090864
      3          1           0        1.028476   -0.000000   -0.363621
      4          1           0       -0.514238   -0.890686   -0.363621
      5          1           0       -0.514238    0.890686   -0.363621
 ---------------------------------------------------------------------
                    Distance matrix (angstroms):
                    1          2          3          4          5
     1  C    0.000000
     2  H    1.090864   0.000000
     3  H    1.090864   1.781373   0.000000
     4  H    1.090864   1.781373   1.781373   0.000000
     5  H    1.090864   1.781373   1.781373   1.781373   0.000000
 Stoichiometry    CH4
 Framework group  TD[O(C),4C3(H)]
 Deg. of freedom     1
 Prev. full point group           TD      NOp  24
 Prev. largest Abelian subgroup   D2      NOp   4
       concise Abelian subgroup   D2      NOp   4
                   Standard orientation:
 ---------------------------------------------------------------------
 Center     Atomic                     Coordinates (Angstroms)
 Number     Number                        X           Y           Z
 ---------------------------------------------------------------------
      1          6                    0.000000    0.000000    0.000000
      2          1                    0.344961    0.689923    0.771357
      3          1                   -0.440220   -0.880440    0.470123
      4          1                   -0.749025    0.493585   -0.620740
      5          1                    0.844283   -0.303069   -0.620740
 ---------------------------------------------------------------------
 TstSym:  Max error for IOp=  3 IAt=    3 Err= 1.09D+00
 TstSym:  IOp= 25 I=    6 IP=    4 Err= 1.09D+00
  CI=  0.000000000000D+00  0.000000000000D+00  0.000000000000D+00
   T=  8.318948476098D-01 -1.663789695220D+00 -8.884044136662D-01
 CIP= -1.415451898532D+00  9.327414171853D-01 -1.173028968624D+00
 Unable to use previous symmetry information.  Redetermining point group.
 No symmetry information on checkpoint file.  Reassigning symmetry.
 Symm:  InNGrp=TD   InAxis=0.
 Stoichiometry    CH4
 Framework group  TD[O(C),4C3(H)]
 Deg. of freedom     1
 Full point group                 TD      NOp  24
 Largest Abelian subgroup         D2      NOp   4
 Largest concise Abelian subgroup D2      NOp   4
                         Standard orientation:                         
 ---------------------------------------------------------------------
 Center     Atomic      Atomic             Coordinates (Angstroms)
 Number     Number       Type             X           Y           Z
 ---------------------------------------------------------------------
      1          6           0        0.000000    0.000000    0.000000
      2          1           0        0.629810    0.629810    0.629810
      3          1           0       -0.629810   -0.629810    0.629810
      4          1           0       -0.629810    0.629810   -0.629810
      5          1           0        0.629810   -0.629810   -0.629810
 ---------------------------------------------------------------------
 Rotational constants (GHZ):    158.0237811    158.0237811    158.0237811
 Leave Link  202 at Sun Aug 18 00:44:24 2024, MaxMem=   13107200 cpu:       0.0
 (Enter /programs/64bit/g09/g09-gfortran/bin/l301.exe)
 Standard basis: CC-pVDZ (5D, 7F)
 Ernie: Thresh=  0.10000D-02 Tol=  0.10000D-05 Strict=F.
 Ernie:  2 primitive shells out of 42 were deleted.
 There are    10 symmetry adapted basis functions of A   symmetry.
 There are     8 symmetry adapted basis functions of B1  symmetry.
 There are     8 symmetry adapted basis functions of B2  symmetry.
 There are     8 symmetry adapted basis functions of B3  symmetry.
 Integral buffers will be    131072 words long.
 Raffenetti 1 integral format.
 Two-electron integral symmetry is turned on.
    34 basis functions,    61 primitive gaussians,    35 cartesian basis functions
     5 alpha electrons        5 beta electrons
       nuclear repulsion energy        13.4247533061 Hartrees.
 IExCor=    0 DFT=F Ex=HF Corr=None ExCW=0 ScaHFX=  1.000000
 ScaDFX=  1.000000  1.000000  1.000000  1.000000 ScalE2=  1.000000  1.000000
 IRadAn=      0 IRanWt=     -1 IRanGd=            0 ICorTp=0
 NAtoms=    5 NActive=    5 NUniq=    2 SFac= 3.00D+00 NAtFMM=   80 NAOKFM=F Big=F
 Leave Link  301 at Sun Aug 18 00:44:24 2024, MaxMem=   13107200 cpu:       0.1
 (Enter /programs/64bit/g09/g09-gfortran/bin/l302.exe)
 NPDir=0 NMtPBC=     1 NCelOv=     1 NCel=       1 NClECP=     1 NCelD=      1
         NCelK=      1 NCelE2=     1 NClLst=     1 CellRange=     0.0.
 One-electron integrals computed using PRISM.
 One-electron integral symmetry used in STVInt
 NBasis=    34 RedAO= T  NBF=    10     8     8     8
 NBsUse=    34 1.00D-06 NBFU=    10     8     8     8
 Leave Link  302 at Sun Aug 18 00:44:25 2024, MaxMem=   13107200 cpu:       0.2
 (Enter /programs/64bit/g09/g09-gfortran/bin/l303.exe)
 DipDrv:  MaxL=1.
 Leave Link  303 at Sun Aug 18 00:44:25 2024, MaxMem=   13107200 cpu:       0.0
 (Enter /programs/64bit/g09/g09-gfortran/bin/l401.exe)
 Initial guess read from the read-write file.
 B after Tr=     0.000000    0.000000    0.000000
         Rot=    1.000000    0.000000    0.000000    0.000000 Ang=   0.00 deg.
 Guess basis will be translated and rotated to current coordinates.
 Initial guess orbital symmetries:
       Occupied  (A1) (A1) (T2) (T2) (T2)
       Virtual   (A1) (T2) (T2) (T2) (T2) (T2) (T2) (T2) (T2) (T2)
                 (A1) (E) (E) (A1) (T1) (T1) (T1) (T2) (T2) (T2)
                 (T2) (T2) (T2) (E) (E) (A1) (T2) (T2) (T2)
 The electronic state of the initial guess is 1-A1.
 Leave Link  401 at Sun Aug 18 00:44:25 2024, MaxMem=   13107200 cpu:       0.1
 (Enter /programs/64bit/g09/g09-gfortran/bin/l502.exe)
 Closed shell SCF:
 Requested convergence on RMS density matrix=1.00D-08 within 128 cycles.
 Requested convergence on MAX density matrix=1.00D-06.
 Requested convergence on             energy=1.00D-06.
 No special actions if energy rises.
 Using DIIS extrapolation, IDIIS=  1040.
 Integral symmetry usage will be decided dynamically.
 Keep R1 ints in memory in canonical form, NReq=1041598.
 IEnd=       22819 IEndB=       22819 NGot=    13107200 MDV=    12903489
 LenX=    12903489 LenY=    12901823
 Symmetry not used in FoFDir.
 MinBra= 0 MaxBra= 2 Meth= 1.
 IRaf=       0 NMat=   1 IRICut=       1 DoRegI=T DoRafI=F ISym2E= 0 JSym2E=0.

 Cycle   1  Pass 1  IDiag  1:
 E= -40.1987115188547    
 DIIS: error= 1.31D-04 at cycle   1 NSaved=   1.
 NSaved= 1 IEnMin= 1 EnMin= -40.1987115188547     IErMin= 1 ErrMin= 1.31D-04
 ErrMax= 1.31D-04 EMaxC= 1.00D-01 BMatC= 3.37D-07 BMatP= 3.37D-07
 IDIUse=3 WtCom= 9.99D-01 WtEn= 1.31D-03
 Coeff-Com:  0.100D+01
 Coeff-En:   0.100D+01
 Coeff:      0.100D+01
 Gap=     0.735 Goal=   None    Shift=    0.000
 RMSDP=2.06D-05 MaxDP=2.32D-04              OVMax= 1.97D-04

 Cycle   2  Pass 1  IDiag  1:
 E= -40.1987119311235     Delta-E=       -0.000000412269 Rises=F Damp=F
 DIIS: error= 4.00D-05 at cycle   2 NSaved=   2.
 NSaved= 2 IEnMin= 2 EnMin= -40.1987119311235     IErMin= 2 ErrMin= 4.00D-05
 ErrMax= 4.00D-05 EMaxC= 1.00D-01 BMatC= 2.83D-08 BMatP= 3.37D-07
[...]
      X                                                                                                                              
      X                                                                                                                              
      X                                                                                                                              
      X                                                                                                                              
      X                                                                                                                              
      X                                                                                                                              
      X                                                                                                                              
      X                                                                                                                              
      X                                                                                                                              
      X                                                                                                                              
      X                                                                                                                              
      X                                                                                                                              
      X                                                                                                                              
      X                                                                                                                              
 
 
                                        methane with imposed symmetry Td and cc-p
 VDZ basis set
                                                            Raman Spectrum
 
      3   3                                                          1       1                                                       
      2   1                                                          6       4                                                       
      8   6                                                          4       3                                                       
      5   4                                                          8       3                                                       
 
      X   X                                                          X       X                                                       
      X   X                                                          X                                                               
      X   X                                                          X                                                               
      X   X                                                          X                                                               
      X   X                                                                                                                          
      X   X                                                                                                                          
      X   X                                                                                                                          
      X   X                                                                                                                          
      X   X                                                                                                                          
      X   X                                                                                                                          
      X   X                                                                                                                          
      X   X                                                                                                                          
      X   X                                                                                                                          
      X   X                                                                                                                          
      X   X                                                                                                                          
      X                                                                                                                              
      X                                                                                                                              
      X                                                                                                                              
      X                                                                                                                              
      X                                                                                                                              
 
 ***** Axes restored to original set *****
 -------------------------------------------------------------------
 Center     Atomic                   Forces (Hartrees/Bohr)
 Number     Number              X              Y              Z
 -------------------------------------------------------------------
      1        6          -0.000000000   -0.000000000   -0.000000000
      2        1          -0.000000000   -0.000000000   -0.000056485
      3        1          -0.000053254    0.000000000    0.000018828
      4        1           0.000026627    0.000046120    0.000018828
      5        1           0.000026627   -0.000046120    0.000018828
 -------------------------------------------------------------------
 Cartesian Forces:  Max     0.000056485 RMS     0.000029169
 Force constants in Cartesian coordinates: 
                1             2             3             4             5 
      1  0.606391D+00
      2  0.000000D+00  0.606391D+00
      3  0.000000D+00  0.000000D+00  0.606391D+00
      4 -0.530442D-01  0.000000D+00  0.000000D+00  0.504497D-01
      5  0.000000D+00 -0.530442D-01  0.000000D+00  0.000000D+00  0.504497D-01
      6  0.000000D+00  0.000000D+00 -0.348705D+00  0.000000D+00  0.000000D+00
      7 -0.315854D+00  0.000000D+00  0.929172D-01  0.308049D-02  0.000000D+00
      8  0.000000D+00 -0.530442D-01  0.000000D+00  0.000000D+00 -0.135082D-02
      9  0.929172D-01  0.000000D+00 -0.858954D-01  0.350424D-01  0.000000D+00
     10 -0.118747D+00 -0.113800D+00 -0.464586D-01 -0.242992D-03  0.191881D-02
     11 -0.113800D+00 -0.250151D+00 -0.804687D-01  0.191881D-02  0.197266D-02
     12 -0.464586D-01 -0.804687D-01 -0.858954D-01 -0.175212D-01 -0.303476D-01
     13 -0.118747D+00  0.113800D+00 -0.464586D-01 -0.242992D-03 -0.191881D-02
     14  0.113800D+00 -0.250151D+00  0.804687D-01 -0.191881D-02  0.197266D-02
     15 -0.464586D-01  0.804687D-01 -0.858954D-01 -0.175212D-01  0.303476D-01
                6             7             8             9            10 
      6  0.375608D+00
      7 -0.964683D-03  0.339480D+00
      8  0.000000D+00  0.000000D+00  0.504497D-01
      9 -0.896781D-02 -0.102188D+00  0.000000D+00  0.865784D-01
     10  0.482343D-03 -0.133532D-01 -0.279724D-01 -0.128861D-01  0.122707D+00
     11  0.835439D-03  0.142726D-02  0.197266D-02  0.153059D-02  0.125154D+00
     12 -0.896781D-02  0.511749D-02  0.119249D-01  0.414238D-02  0.510938D-01
     13  0.482341D-03 -0.133532D-01  0.279724D-01 -0.128861D-01  0.963558D-02
     14 -0.835440D-03 -0.142726D-02  0.197266D-02 -0.153059D-02  0.146998D-01
     15 -0.896781D-02  0.511750D-02 -0.119249D-01  0.414238D-02  0.776856D-02
               11            12            13            14            15 
     11  0.267222D+00
     12  0.884970D-01  0.865784D-01
     13 -0.146998D-01  0.776856D-02  0.122707D+00
     14 -0.210161D-01  0.103944D-01 -0.125154D+00  0.267222D+00
     15 -0.103944D-01  0.414238D-02  0.510938D-01 -0.884970D-01  0.865784D-01
 Force constants in internal coordinates: 
                1             2             3             4             5 
      1  0.375608D+00
      2  0.207976D-02  0.375608D+00
      3  0.207976D-02  0.207976D-02  0.375608D+00
      4  0.207976D-02  0.207976D-02  0.207976D-02  0.375608D+00
      5  0.199478D-02  0.199478D-02 -0.125253D-02 -0.273702D-02  0.218217D-01
      6  0.312629D-02 -0.806785D-03  0.347926D-02 -0.579877D-02 -0.957799D-02
      7  0.610938D-02 -0.490324D-02 -0.542765D-02  0.422150D-02 -0.144226D-01
      8 -0.806787D-03  0.312629D-02  0.347926D-02 -0.579877D-02 -0.957799D-02
      9 -0.490324D-02  0.610938D-02 -0.542765D-02  0.422150D-02 -0.144226D-01
     10 -0.552043D-02 -0.552043D-02  0.514931D-02  0.589155D-02  0.261795D-01
     11 -0.386349D-02 -0.386350D-02 -0.272717D-02  0.104542D-01 -0.149954D-01
     12  0.318170D-02  0.318170D-02 -0.818152D-02  0.181812D-02  0.906199D-02
     13 -0.418957D-02  0.737127D-02 -0.409076D-02  0.909057D-03  0.453099D-02
     14 -0.737127D-02  0.418957D-02  0.409076D-02 -0.909058D-03 -0.453099D-02
                6             7             8             9            10 
      6  0.412471D-01
      7 -0.250050D-01  0.805771D-01
      8 -0.210275D-02  0.270727D-01  0.412471D-01
      9  0.270728D-01 -0.388927D-01 -0.250050D-01  0.805771D-01
     10 -0.316341D-01 -0.293295D-01 -0.316341D-01 -0.293295D-01  0.957477D-01
     11 -0.122403D-01  0.163978D-01 -0.122403D-01  0.163978D-01  0.668047D-02
     12 -0.104644D-01  0.786238D-02 -0.104644D-01  0.786238D-02 -0.385800D-02
     13 -0.158329D-01 -0.757840D-03  0.536856D-02  0.862022D-02 -0.192900D-02
     14 -0.536855D-02 -0.862022D-02  0.158329D-01  0.757840D-03  0.192900D-02
               11            12            13            14 
     11  0.333568D-01
     12  0.171757D-02  0.207280D-01
     13  0.858785D-03  0.103640D-01  0.210366D-01
     14 -0.858785D-03 -0.103640D-01  0.106726D-01  0.210366D-01
 Leave Link  716 at Sun Aug 18 00:44:33 2024, MaxMem=   13107200 cpu:       0.0
 (Enter /programs/64bit/g09/g09-gfortran/bin/l103.exe)

 GradGradGradGradGradGradGradGradGradGradGradGradGradGradGradGradGradGrad
 Berny optimization.
 Internal  Forces:  Max     0.000056485 RMS     0.000030192
 Search for a local minimum.
 Step number   1 out of a maximum of    2
 All quantities printed in internal units (Hartrees-Bohrs-Radians)
 Second derivative matrix not updated -- analytic derivatives used.
 The second derivative matrix:
                          R1        R2        R3        R4        A1
           R1           0.37561
           R2           0.00208   0.37561
           R3           0.00208   0.00208   0.37561
           R4           0.00208   0.00208   0.00208   0.37561
           A1           0.00199   0.00199  -0.00125  -0.00274   0.02182
           A2           0.00313  -0.00081   0.00348  -0.00580  -0.00958
           A3           0.00611  -0.00490  -0.00543   0.00422  -0.01442
           A4          -0.00081   0.00313   0.00348  -0.00580  -0.00958
           A5          -0.00490   0.00611  -0.00543   0.00422  -0.01442
           A6          -0.00552  -0.00552   0.00515   0.00589   0.02618
           D1          -0.00386  -0.00386  -0.00273   0.01045  -0.01500
           D2           0.00318   0.00318  -0.00818   0.00182   0.00906
           D3          -0.00419   0.00737  -0.00409   0.00091   0.00453
           D4          -0.00737   0.00419   0.00409  -0.00091  -0.00453
                          A2        A3        A4        A5        A6
           A2           0.04125
           A3          -0.02501   0.08058
           A4          -0.00210   0.02707   0.04125
           A5           0.02707  -0.03889  -0.02501   0.08058
           A6          -0.03163  -0.02933  -0.03163  -0.02933   0.09575
           D1          -0.01224   0.01640  -0.01224   0.01640   0.00668
           D2          -0.01046   0.00786  -0.01046   0.00786  -0.00386
           D3          -0.01583  -0.00076   0.00537   0.00862  -0.00193
           D4          -0.00537  -0.00862   0.01583   0.00076   0.00193
                          D1        D2        D3        D4
           D1           0.03336
           D2           0.00172   0.02073
           D3           0.00086   0.01036   0.02104
           D4          -0.00086  -0.01036   0.01067   0.02104
     Eigenvalues ---    0.04254   0.04796   0.07301   0.14521   0.14566
     Eigenvalues ---    0.37443   0.37444   0.37471   0.381851000.00000
     Eigenvalues --- 1000.000001000.000001000.000001000.00000
 Angle between quadratic step and forces=   0.00 degrees.
 Linear search not attempted -- first point.
 Iteration  1 RMS(Cart)=  0.00007907 RMS(Int)=  0.00000000
 Iteration  2 RMS(Cart)=  0.00000000 RMS(Int)=  0.00000000
 ClnCor:  largest displacement from symmetrization is 6.61D-12 for atom     5.
 Variable       Old X    -DE/DX   Delta X   Delta X   Delta X     New X
                                 (Linear)    (Quad)   (Total)
    R1        2.06143  -0.00006   0.00000  -0.00015  -0.00015   2.06129
    R2        2.06143  -0.00006   0.00000  -0.00015  -0.00015   2.06129
    R3        2.06143  -0.00006   0.00000  -0.00015  -0.00015   2.06129
    R4        2.06143  -0.00006   0.00000  -0.00015  -0.00015   2.06129
    A1        1.91063   0.00000   0.00000   0.00000   0.00000   1.91063
    A2        1.91063  -0.00000   0.00000   0.00000   0.00000   1.91063
    A3        1.91063   0.00000   0.00000  -0.00000  -0.00000   1.91063
    A4        1.91063  -0.00000   0.00000  -0.00000  -0.00000   1.91063
    A5        1.91063  -0.00000   0.00000   0.00000   0.00000   1.91063
    A6        1.91063   0.00000   0.00000   0.00000   0.00000   1.91063
    D1       -2.09440   0.00000   0.00000  -0.00000   0.00000  -2.09440
    D2        2.09440   0.00000   0.00000  -0.00000   0.00000   2.09440
    D3       -2.09440  -0.00000   0.00000   0.00000   0.00000  -2.09440
    D4        2.09440  -0.00000   0.00000   0.00000  -0.00000   2.09440
         Item               Value     Threshold  Converged?
 Maximum Force            0.000056     0.000450     YES
 RMS     Force            0.000030     0.000300     YES
 Maximum Displacement     0.000148     0.001800     YES
 RMS     Displacement     0.000079     0.001200     YES
 Predicted change in Energy=-1.671101D-08
 Optimization completed.
    -- Stationary point found.
                           ----------------------------
                           !   Optimized Parameters   !
                           ! (Angstroms and Degrees)  !
 --------------------------                            --------------------------
 ! Name  Definition              Value          Derivative Info.                !
 --------------------------------------------------------------------------------
 ! R1    R(1,2)                  1.0909         -DE/DX =   -0.0001              !
 ! R2    R(1,3)                  1.0909         -DE/DX =   -0.0001              !
 ! R3    R(1,4)                  1.0909         -DE/DX =   -0.0001              !
 ! R4    R(1,5)                  1.0909         -DE/DX =   -0.0001              !
 ! A1    A(2,1,3)              109.4712         -DE/DX =    0.0                 !
 ! A2    A(2,1,4)              109.4712         -DE/DX =    0.0                 !
 ! A3    A(2,1,5)              109.4712         -DE/DX =    0.0                 !
 ! A4    A(3,1,4)              109.4712         -DE/DX =    0.0                 !
 ! A5    A(3,1,5)              109.4712         -DE/DX =    0.0                 !
 ! A6    A(4,1,5)              109.4712         -DE/DX =    0.0                 !
 ! D1    D(2,1,4,3)           -120.0            -DE/DX =    0.0                 !
 ! D2    D(2,1,5,3)            120.0            -DE/DX =    0.0                 !
 ! D3    D(2,1,5,4)           -120.0            -DE/DX =    0.0                 !
 ! D4    D(3,1,5,4)            120.0            -DE/DX =    0.0                 !
 --------------------------------------------------------------------------------
 GradGradGradGradGradGradGradGradGradGradGradGradGradGradGradGradGradGrad

 Leave Link  103 at Sun Aug 18 00:44:33 2024, MaxMem=   13107200 cpu:       0.0
 (Enter /programs/64bit/g09/g09-gfortran/bin/l9999.exe)
 1\1\GINC-MOLMOD\Freq\RHF\CC-pVDZ\C1H4\OSPITE\18-Aug-2024\0\\#P Geom=Al
 lCheck Guess=TCheck SCRF=Check GenChk RHF/CC-pVDZ Freq\\methane with i
 mposed symmetry Td and cc-pVDZ basis set\\0,1\C,0.,0.,0.\H,0.,0.,1.090
 8635629\H,1.0284760303,0.,-0.3636211876\H,-0.5142380151,-0.8906863694,
 -0.3636211876\H,-0.5142380151,0.8906863694,-0.3636211876\\Version=EM64
 L-G09RevA.02\State=1-A1\HF=-40.198712\RMSD=2.148e-10\RMSF=2.917e-05\Ze
 roPoint=0.0469644\Thermal=0.0498216\Dipole=0.,0.,0.\DipoleDeriv=0.0606
 68,0.,0.,0.,0.060668,0.,0.,0.,0.060668,0.0594773,0.,0.,0.,0.0594773,0.
 ,0.,0.,-0.1644557,-0.1395742,0.,0.0703754,0.,0.0594773,0.,0.0703754,0.
 ,0.0345959,0.0097144,-0.0861919,-0.0351877,-0.0861919,-0.0898113,-0.06
 09468,-0.0351877,-0.0609468,0.0345959,0.0097144,0.0861919,-0.0351877,0
 .0861919,-0.0898113,0.0609469,-0.0351877,0.0609468,0.0345959\Polar=13.
 0099712,0.,13.0099712,0.,0.,13.0099712\PolarDeriv=-4.9685717,0.,4.9685
 717,3.5133107,0.,0.,0.,4.9685717,0.,0.,3.5133107,0.,3.5133108,0.,3.513
 3108,0.,0.,-7.0266214,0.6059194,0.,-0.6059194,1.7408053,0.,0.,0.,-0.60
 59194,0.,0.,1.7408053,-0.0000002,0.2045046,0.,0.2045045,0.,0.,9.877266
 2,8.6862537,0.,-0.0091645,-2.3512095,0.,1.0209041,0.0000001,1.4392738,
 0.,0.,-1.1515347,0.,-1.8391092,0.,-0.6394345,2.4693423,0.,-0.9502147,-
 2.1618004,-2.5058372,-2.1767443,-1.4514535,-0.5194745,-0.510452,-1.251
 4527,-2.9009633,-6.2631269,-0.5194745,-2.0512908,-0.8841289,-0.9393531
 ,-0.5194744,-1.5391905,-1.2346712,-2.1385131,-0.9502147,-2.1618005,2.5
 05837,-2.1767442,-1.4514534,0.5194744,-0.510452,1.2514528,-2.9009633,6
 .2631269,0.5194744,-2.0512908,0.8841288,-0.9393532,0.5194745,-1.539190
 7,-1.2346712,2.1385132,-0.9502147\HyperPolar=26.8988455,0.,-26.8988455
 ,0.,-19.020356,0.,-19.020356,0.,0.,38.0407121\PG=TD [O(C1),4C3(H1)]\NI
 mag=0\\0.60639105,0.,0.60639105,0.,0.,0.60639105,-0.05304418,0.,0.,0.0
 5044968,0.,-0.05304418,0.,0.,0.05044968,0.,0.,-0.34870494,0.,0.,0.3756
 0837,-0.31585374,0.,0.09291721,0.00308049,0.,-0.00096468,0.33947963,0.
 ,-0.05304418,0.,0.,-0.00135082,0.,0.,0.05044968,0.09291721,0.,-0.08589
 537,0.03504241,0.,-0.00896781,-0.10218752,0.,0.08657842,-0.11874657,-0
 .11379988,-0.04645861,-0.00024299,0.00191881,0.00048234,-0.01335319,-0
 .02797241,-0.01288605,0.12270717,-0.11379988,-0.25015135,-0.08046866,0
 .00191881,0.00197266,0.00083544,0.00142726,0.00197266,0.00153059,0.125
 15364,0.26722214,-0.04645861,-0.08046866,-0.08589537,-0.01752121,-0.03
 034762,-0.00896781,0.00511749,0.01192495,0.00414238,0.05109376,0.08849
 699,0.08657842,-0.11874657,0.11379988,-0.04645861,-0.00024299,-0.00191
 881,0.00048234,-0.01335319,0.02797241,-0.01288605,0.00963558,-0.014699
 83,0.00776856,0.12270717,0.11379988,-0.25015135,0.08046867,-0.00191881
 ,0.00197266,-0.00083544,-0.00142726,0.00197266,-0.00153059,0.01469984,
 -0.02101611,0.01039435,-0.12515364,0.26722214,-0.04645861,0.08046867,-
 0.08589537,-0.01752121,0.03034762,-0.00896781,0.00511750,-0.01192494,0
 .00414238,0.00776856,-0.01039435,0.00414238,0.05109376,-0.08849699,0.0
 8657842\\0.,0.,0.,0.,0.,0.00005648,0.00005325,0.,-0.00001883,-0.000026
 63,-0.00004612,-0.00001883,-0.00002663,0.00004612,-0.00001883\\\@


 IN THE UNIVERSE THE DIFFICULT THINGS ARE DONE AS IF THEY WERE EASY.

                                                          -- LAO-TSU
 Job cpu time:  0 days  0 hours  0 minutes  2.9 seconds.
 File lengths (MBytes):  RWF=      5 Int=      0 D2E=      0 Chk=      1 Scr=      1
 Normal termination of Gaussian 09 at Sun Aug 18 00:44:33 2024.
