 Entering Gaussian System, Link 0=/programs/64bit/g09/g09-gfortran/bin/g09
 Input=ch4_Pople631.com
 Output=ch4_Pople631.log
 Initial command:
 /programs/64bit/g09/g09-gfortran/bin/l1.exe /home/ospite/Desktop/MMfP/Project6/CH4/g09/HF/Gau-3734.inp -scrdir=/home/ospite/Desktop/MMfP/Project6/CH4/g09/HF/
 Entering Link 1 = /programs/64bit/g09/g09-gfortran/bin/l1.exe PID=      3735.
  
 Copyright (c) 1988,1990,1992,1993,1995,1998,2003,2009, Gaussian, Inc.
                  All Rights Reserved.
  
 This is part of the Gaussian(R) 09 program.  It is based on
 the Gaussian(R) 03 system (copyright 2003, Gaussian, Inc.),
 the Gaussian(R) 98 system (copyright 1998, Gaussian, Inc.),
 the Gaussian(R) 94 system (copyright 1995, Gaussian, Inc.),
 the Gaussian 92(TM) system (copyright 1992, Gaussian, Inc.),
 the Gaussian 90(TM) system (copyright 1990, Gaussian, Inc.),
 the Gaussian 88(TM) system (copyright 1988, Gaussian, Inc.),
 the Gaussian 86(TM) system (copyright 1986, Carnegie Mellon
 University), and the Gaussian 82(TM) system (copyright 1983,
 Carnegie Mellon University). Gaussian is a federally registered
 trademark of Gaussian, Inc.
  
 This software contains proprietary and confidential information,
 including trade secrets, belonging to Gaussian, Inc.
  
 This software is provided under written license and may be
 used, copied, transmitted, or stored only in accord with that
 written license.
  
 The following legend is applicable only to US Government
 contracts under FAR:
  
                    RESTRICTED RIGHTS LEGEND
  
 Use, reproduction and disclosure by the US Government is
 subject to restrictions as set forth in subparagraphs (a)
 and (c) of the Commercial Computer Software - Restricted
 Rights clause in FAR 52.227-19.
  
 Gaussian, Inc.
 340 Quinnipiac St., Bldg. 40, Wallingford CT 06492
  
  
 ---------------------------------------------------------------
 Warning -- This program may not be used in any manner that
 competes with the business of Gaussian, Inc. or will provide
 assistance to any competitor of Gaussian, Inc.  The licensee
 of this program is prohibited from giving any competitor of
 Gaussian, Inc. access to this program.  By using this program,
 the user acknowledges that Gaussian, Inc. is engaged in the
 business of creating and licensing software in the field of
 computational chemistry and represents and warrants to the
 licensee that it is not a competitor of Gaussian, Inc. and that
 it will not use this program in any manner prohibited above.
 ---------------------------------------------------------------
  

 Cite this work as:
 Gaussian 09, Revision A.02,
 M. J. Frisch, G. W. Trucks, H. B. Schlegel, G. E. Scuseria, 
 M. A. Robb, J. R. Cheeseman, G. Scalmani, V. Barone, B. Mennucci, 
 G. A. Petersson, H. Nakatsuji, M. Caricato, X. Li, H. P. Hratchian, 
 A. F. Izmaylov, J. Bloino, G. Zheng, J. L. Sonnenberg, M. Hada, 
 M. Ehara, K. Toyota, R. Fukuda, J. Hasegawa, M. Ishida, T. Nakajima, 
 Y. Honda, O. Kitao, H. Nakai, T. Vreven, J. A. Montgomery, Jr., 
 J. E. Peralta, F. Ogliaro, M. Bearpark, J. J. Heyd, E. Brothers, 
 K. N. Kudin, V. N. Staroverov, R. Kobayashi, J. Normand, 
 K. Raghavachari, A. Rendell, J. C. Burant, S. S. Iyengar, J. Tomasi, 
 M. Cossi, N. Rega, J. M. Millam, M. Klene, J. E. Knox, J. B. Cross, 
 V. Bakken, C. Adamo, J. Jaramillo, R. Gomperts, R. E. Stratmann, 
 O. Yazyev, A. J. Austin, R. Cammi, C. Pomelli, J. W. Ochterski, 
 R. L. Martin, K. Morokuma, V. G. Zakrzewski, G. A. Voth, 
 P. Salvador, J. J. Dannenberg, S. Dapprich, A. D. Daniels, 
 O. Farkas, J. B. Foresman, J. V. Ortiz, J. Cioslowski, 
 and D. J. Fox, Gaussian, Inc., Wallingford CT, 2009.
 
 ******************************************
 Gaussian 09:  EM64L-G09RevA.02 11-Jun-2009
                17-Aug-2024 
 ******************************************
 %mem=100MB
 -------------------------------------------------------------
 #p hf/6-31G opt freq symmetry=(follow,pg=Td) pop=full gfinput
 -------------------------------------------------------------
 1/18=20,19=15,38=1/1,3;
 2/9=110,12=2,17=6,18=5,19=2314885530818462804,40=1/2;
 3/5=1,6=6,11=9,16=1,24=10,25=1,30=1,71=1/1,2,3;
 4//1;
 5/5=2,38=5/2;
 6/7=3,28=1/1;
 7//1,2,3,16;
 1/18=20,19=15/3(2);
 2/9=110,15=5,19=2314885530818462804/2;
 99//99;
 2/9=110,15=5,19=2314885530818462804/2;
 3/5=1,6=6,11=9,16=1,25=1,30=1,71=1/1,2,3;
 4/5=5,16=3/1;
 5/5=2,38=5/2;
 7//1,2,3,16;
 1/18=20,19=15/3(-5);
 2/9=110,15=5,19=2314885530818462804/2;
 6/7=3,19=2,28=1/1;
 99/9=1/99;
 Leave Link    1 at Sat Aug 17 14:37:10 2024, MaxMem=   13107200 cpu:       0.1
 (Enter /programs/64bit/g09/g09-gfortran/bin/l101.exe)
 ------------------------------------------------------------
 methane with imposed symmetry Td and hf/6-31G basis function
 ------------------------------------------------------------
 Symbolic Z-matrix:
 Charge =  0 Multiplicity = 1
 C1
 H2                   1    d
 H3                   1    d        2    a
 H4                   1    d        2    a        3    t        0
 H5                   1    d        2    a        3    -t       0
       Variables:
  d                     1.09                     
  a                   109.471                    
  t                   120.                       
 
     3 tetrahedral angles replaced.
 NAtoms=      5 NQM=      5 NQMF=      0 NMic=      0 NMicF=      0 NTot=      5.
                    Isotopes and Nuclear Properties:
 (Nuclear quadrupole moments (NQMom) in fm**2, nuclear magnetic moments (NMagM)
  in nuclear magnetons)

  Atom         1           2           3           4           5
 IAtWgt=          12           1           1           1           1
 AtmWgt=  12.0000000   1.0078250   1.0078250   1.0078250   1.0078250
 NucSpn=           0           1           1           1           1
 AtZEff=   0.0000000   0.0000000   0.0000000   0.0000000   0.0000000
 NQMom=    0.0000000   0.0000000   0.0000000   0.0000000   0.0000000
 NMagM=    0.0000000   2.7928460   2.7928460   2.7928460   2.7928460
 Leave Link  101 at Sat Aug 17 14:37:10 2024, MaxMem=   13107200 cpu:       0.1
 (Enter /programs/64bit/g09/g09-gfortran/bin/l103.exe)

 GradGradGradGradGradGradGradGradGradGradGradGradGradGradGradGradGradGrad
 Berny optimization.
 Initialization pass.
                           ----------------------------
                           !    Initial Parameters    !
                           ! (Angstroms and Degrees)  !
 --------------------------                            --------------------------
 ! Name  Definition              Value          Derivative Info.                !
 --------------------------------------------------------------------------------
 ! R1    R(1,2)                  1.09           estimate D2E/DX2                !
 ! R2    R(1,3)                  1.09           estimate D2E/DX2                !
 ! R3    R(1,4)                  1.09           estimate D2E/DX2                !
 ! R4    R(1,5)                  1.09           estimate D2E/DX2                !
 ! A1    A(2,1,3)              109.4712         estimate D2E/DX2                !
 ! A2    A(2,1,4)              109.4712         estimate D2E/DX2                !
 ! A3    A(2,1,5)              109.4712         estimate D2E/DX2                !
 ! A4    A(3,1,4)              109.4712         estimate D2E/DX2                !
 ! A5    A(3,1,5)              109.4712         estimate D2E/DX2                !
 ! A6    A(4,1,5)              109.4712         estimate D2E/DX2                !
 ! D1    D(2,1,4,3)           -120.0            estimate D2E/DX2                !
 ! D2    D(2,1,5,3)            120.0            estimate D2E/DX2                !
 ! D3    D(2,1,5,4)           -120.0            estimate D2E/DX2                !
 ! D4    D(3,1,5,4)            120.0            estimate D2E/DX2                !
 --------------------------------------------------------------------------------
 Trust Radius=3.00D-01 FncErr=1.00D-07 GrdErr=1.00D-07
 Number of steps in this run=  24 maximum allowed number of steps= 100.
 GradGradGradGradGradGradGradGradGradGradGradGradGradGradGradGradGradGrad

 Leave Link  103 at Sat Aug 17 14:37:10 2024, MaxMem=   13107200 cpu:       0.0
 (Enter /programs/64bit/g09/g09-gfortran/bin/l202.exe)
                          Input orientation:                          
 ---------------------------------------------------------------------
 Center     Atomic      Atomic             Coordinates (Angstroms)
 Number     Number       Type             X           Y           Z
 ---------------------------------------------------------------------
      1          6           0        0.000000    0.000000    0.000000
      2          1           0        0.000000    0.000000    1.090000
      3          1           0        1.027662    0.000000   -0.363333
      4          1           0       -0.513831   -0.889981   -0.363333
      5          1           0       -0.513831    0.889981   -0.363333
 ---------------------------------------------------------------------
                    Distance matrix (angstroms):
                    1          2          3          4          5
     1  C    0.000000
     2  H    1.090000   0.000000
     3  H    1.090000   1.779963   0.000000
     4  H    1.090000   1.779963   1.779963   0.000000
     5  H    1.090000   1.779963   1.779963   1.779963   0.000000
 Symm:  InNGrp=TD   InAxis=0.
 Stoichiometry    CH4
 Framework group  TD[O(C),4C3(H)]
 Deg. of freedom     1
 Full point group                 TD      NOp  24
 Largest Abelian subgroup         D2      NOp   4
 Largest concise Abelian subgroup D2      NOp   4
                         Standard orientation:                         
 ---------------------------------------------------------------------
 Center     Atomic      Atomic             Coordinates (Angstroms)
 Number     Number       Type             X           Y           Z
 ---------------------------------------------------------------------
      1          6           0        0.000000    0.000000    0.000000
      2          1           0        0.629312    0.629312    0.629312
      3          1           0       -0.629312   -0.629312    0.629312
      4          1           0       -0.629312    0.629312   -0.629312
      5          1           0        0.629312   -0.629312   -0.629312
 ---------------------------------------------------------------------
 Rotational constants (GHZ):    158.2742720    158.2742720    158.2742720
 Leave Link  202 at Sat Aug 17 14:37:10 2024, MaxMem=   13107200 cpu:       0.0
 (Enter /programs/64bit/g09/g09-gfortran/bin/l301.exe)
 Standard basis: 6-31G (6D, 7F)
 Ernie: Thresh=  0.10000D-02 Tol=  0.10000D-05 Strict=F.
 AO basis set in the form of general basis input (Overlap normalization):
      1 0
 S   6 1.00       0.000000000000
      0.3047524880D+04  0.1834737132D-02
      0.4573695180D+03  0.1403732281D-01
      0.1039486850D+03  0.6884262226D-01
      0.2921015530D+02  0.2321844432D+00
      0.9286662960D+01  0.4679413484D+00
      0.3163926960D+01  0.3623119853D+00
 SP   3 1.00       0.000000000000
      0.7868272350D+01 -0.1193324198D+00  0.6899906659D-01
      0.1881288540D+01 -0.1608541517D+00  0.3164239610D+00
      0.5442492580D+00  0.1143456438D+01  0.7443082909D+00
 SP   1 1.00       0.000000000000
      0.1687144782D+00  0.1000000000D+01  0.1000000000D+01
 ****
      2 0
 S   3 1.00       0.000000000000
      0.1873113696D+02  0.3349460434D-01
      0.2825394365D+01  0.2347269535D+00
      0.6401216923D+00  0.8137573261D+00
 S   1 1.00       0.000000000000
      0.1612777588D+00  0.1000000000D+01
 ****
      3 0
 S   3 1.00       0.000000000000
      0.1873113696D+02  0.3349460434D-01
      0.2825394365D+01  0.2347269535D+00
      0.6401216923D+00  0.8137573261D+00
 S   1 1.00       0.000000000000
      0.1612777588D+00  0.1000000000D+01
 ****
      4 0
 S   3 1.00       0.000000000000
      0.1873113696D+02  0.3349460434D-01
      0.2825394365D+01  0.2347269535D+00
      0.6401216923D+00  0.8137573261D+00
 S   1 1.00       0.000000000000
      0.1612777588D+00  0.1000000000D+01
 ****
      5 0
 S   3 1.00       0.000000000000
      0.1873113696D+02  0.3349460434D-01
      0.2825394365D+01  0.2347269535D+00
      0.6401216923D+00  0.8137573261D+00
 S   1 1.00       0.000000000000
      0.1612777588D+00  0.1000000000D+01
 ****

 There are     5 symmetry adapted basis functions of A   symmetry.
 There are     4 symmetry adapted basis functions of B1  symmetry.
 There are     4 symmetry adapted basis functions of B2  symmetry.
 There are     4 symmetry adapted basis functions of B3  symmetry.
 Integral buffers will be    131072 words long.
 Raffenetti 1 integral format.
 Two-electron integral symmetry is turned on.
    17 basis functions,    38 primitive gaussians,    17 cartesian basis functions
     5 alpha electrons        5 beta electrons
       nuclear repulsion energy        13.4353891954 Hartrees.
 IExCor=    0 DFT=F Ex=HF Corr=None ExCW=0 ScaHFX=  1.000000
 ScaDFX=  1.000000  1.000000  1.000000  1.000000 ScalE2=  1.000000  1.000000
 IRadAn=      0 IRanWt=     -1 IRanGd=            0 ICorTp=0
 NAtoms=    5 NActive=    5 NUniq=    2 SFac= 3.00D+00 NAtFMM=   80 NAOKFM=F Big=F
 Leave Link  301 at Sat Aug 17 14:37:10 2024, MaxMem=   13107200 cpu:       0.1
 (Enter /programs/64bit/g09/g09-gfortran/bin/l302.exe)
 NPDir=0 NMtPBC=     1 NCelOv=     1 NCel=       1 NClECP=     1 NCelD=      1
         NCelK=      1 NCelE2=     1 NClLst=     1 CellRange=     0.0.
 One-electron integrals computed using PRISM.
 One-electron integral symmetry used in STVInt
 NBasis=    17 RedAO= T  NBF=     5     4     4     4
 NBsUse=    17 1.00D-06 NBFU=     5     4     4     4
 Leave Link  302 at Sat Aug 17 14:37:10 2024, MaxMem=   13107200 cpu:       0.1
 (Enter /programs/64bit/g09/g09-gfortran/bin/l303.exe)
 DipDrv:  MaxL=1.
 Leave Link  303 at Sat Aug 17 14:37:11 2024, MaxMem=   13107200 cpu:       0.0
 (Enter /programs/64bit/g09/g09-gfortran/bin/l401.exe)
 Harris functional with IExCor=  205 diagonalized for initial guess.
 ExpMin= 1.61D-01 ExpMax= 3.05D+03 ExpMxC= 4.57D+02 IAcc=1 IRadAn=         1 AccDes= 0.00D+00
 HarFok:  IExCor=  205 AccDes= 0.00D+00 IRadAn=         1 IDoV= 1
 ScaDFX=  1.000000  1.000000  1.000000  1.000000
 FoFCou: FMM=F IPFlag=           0 FMFlag=      100000 FMFlg1=           0
         NFxFlg=           0 DoJE=T BraDBF=F KetDBF=T FulRan=T
         Omega=  0.000000  0.000000  1.000000  0.000000  0.000000 ICntrl=     500 IOpCl=  0
         NMat0=    1 NMatS0=    1 NMatT0=    0 NMatD0=    1 NMtDS0=    0 NMtDT0=    0
         I1Cent=           4 NGrid=           0.
 Petite list used in FoFCou.
 Harris En= -40.3660326147709    
 Initial guess orbital symmetries:
       Occupied  (A1) (A1) (T2) (T2) (T2)
       Virtual   (A1) (T2) (T2) (T2) (T2) (T2) (T2) (T2) (T2) (T2)
                 (A1) (A1)
 The electronic state of the initial guess is 1-A1.
 Leave Link  401 at Sat Aug 17 14:37:11 2024, MaxMem=   13107200 cpu:       0.2
 (Enter /programs/64bit/g09/g09-gfortran/bin/l502.exe)
 Closed shell SCF:
 Requested convergence on RMS density matrix=1.00D-08 within 128 cycles.
 Requested convergence on MAX density matrix=1.00D-06.
 Requested convergence on             energy=1.00D-06.
 No special actions if energy rises.
 Using DIIS extrapolation, IDIIS=  1040.
 Integral symmetry usage will be decided dynamically.
 Keep R1 ints in memory in canonical form, NReq=831858.
 IEnd=       20063 IEndB=       20063 NGot=    13107200 MDV=    13092431
 LenX=    13092431 LenY=    13091549
 Symmetry not used in FoFDir.
 MinBra= 0 MaxBra= 1 Meth= 1.
 IRaf=       0 NMat=   1 IRICut=       1 DoRegI=T DoRafI=F ISym2E= 0 JSym2E=0.

 Cycle   1  Pass 1  IDiag  1:
 E= -40.0580548143669    
 DIIS: error= 8.34D-02 at cycle   1 NSaved=   1.
 NSaved= 1 IEnMin= 1 EnMin= -40.0580548143669     IErMin= 1 ErrMin= 8.34D-02
 ErrMax= 8.34D-02 EMaxC= 1.00D-01 BMatC= 1.16D-01 BMatP= 1.16D-01
 IDIUse=3 WtCom= 1.66D-01 WtEn= 8.34D-01
 Coeff-Com:  0.100D+01
 Coeff-En:   0.100D+01
 Coeff:      0.100D+01
 Gap=     0.721 Goal=   None    Shift=    0.000
 GapD=    0.721 DampG=2.000 DampE=0.500 DampFc=1.0000 IDamp=-1.
 RMSDP=2.06D-02 MaxDP=1.33D-01              OVMax= 1.43D-01

 Cycle   2  Pass 1  IDiag  1:
 E= -40.1612467457445     Delta-E=       -0.103191931378 Rises=F Damp=F
 DIIS: error= 3.16D-02 at cycle   2 NSaved=   2.
 NSaved= 2 IEnMin= 2 EnMin= -40.1612467457445     IErMin= 2 ErrMin= 3.16D-02
 ErrMax= 3.16D-02 EMaxC= 1.00D-01 BMatC= 1.91D-02 BMatP= 1.16D-01
 IDIUse=3 WtCom= 6.84D-01 WtEn= 3.16D-01
 Coeff-Com:  0.276D+00 0.724D+00
 Coeff-En:   0.000D+00 0.100D+01
 Coeff:      0.189D+00 0.811D+00
 Gap=     0.807 Goal=   None    Shift=    0.000
 RMSDP=6.33D-03 MaxDP=3.87D-02 DE=-1.03D-01 OVMax= 3.84D-02

 Cycle   3  Pass 1  IDiag  1:
 E= -40.1800129857018     Delta-E=       -0.018766239957 Rises=F Damp=F
 DIIS: error= 4.54D-03 at cycle   3 NSaved=   3.
 NSaved= 3 IEnMin= 3 EnMin= -40.1800129857018     IErMin= 3 ErrMin= 4.54D-03
 ErrMax= 4.54D-03 EMaxC= 1.00D-01 BMatC= 3.15D-04 BMatP= 1.91D-02
 IDIUse=3 WtCom= 9.55D-01 WtEn= 4.54D-02
 Coeff-Com: -0.240D-01 0.657D-01 0.958D+00
 Coeff-En:   0.000D+00 0.000D+00 0.100D+01
 Coeff:     -0.230D-01 0.627D-01 0.960D+00
 Gap=     0.798 Goal=   None    Shift=    0.000
 RMSDP=9.08D-04 MaxDP=5.20D-03 DE=-1.88D-02 OVMax= 5.95D-03

 Cycle   4  Pass 1  IDiag  1:
 E= -40.1803821247879     Delta-E=       -0.000369139086 Rises=F Damp=F
 DIIS: error= 4.02D-04 at cycle   4 NSaved=   4.
 NSaved= 4 IEnMin= 4 EnMin= -40.1803821247879     IErMin= 4 ErrMin= 4.02D-04
 ErrMax= 4.02D-04 EMaxC= 1.00D-01 BMatC= 1.44D-06 BMatP= 3.15D-04
 IDIUse=3 WtCom= 9.96D-01 WtEn= 4.02D-03
 Coeff-Com:  0.855D-02-0.346D-01-0.371D+00 0.140D+01
 Coeff-En:   0.000D+00 0.000D+00 0.000D+00 0.100D+01
 Coeff:      0.851D-02-0.344D-01-0.369D+00 0.140D+01
 Gap=     0.798 Goal=   None    Shift=    0.000
 RMSDP=1.68D-04 MaxDP=7.53D-04 DE=-3.69D-04 OVMax= 5.70D-04

 Cycle   5  Pass 1  IDiag  1:
 E= -40.1803847406200     Delta-E=       -0.000002615832 Rises=F Damp=F
 DIIS: error= 9.78D-06 at cycle   5 NSaved=   5.
 NSaved= 5 IEnMin= 5 EnMin= -40.1803847406200     IErMin= 5 ErrMin= 9.78D-06
 ErrMax= 9.78D-06 EMaxC= 1.00D-01 BMatC= 2.17D-09 BMatP= 1.44D-06
 IDIUse=1 WtCom= 1.00D+00 WtEn= 0.00D+00
 Coeff-Com: -0.125D-02 0.514D-02 0.552D-01-0.237D+00 0.118D+01
 Coeff:     -0.125D-02 0.514D-02 0.552D-01-0.237D+00 0.118D+01
 Gap=     0.798 Goal=   None    Shift=    0.000
 RMSDP=9.90D-06 MaxDP=3.06D-05 DE=-2.62D-06 OVMax= 2.91D-05

 Cycle   6  Pass 1  IDiag  1:
 E= -40.1803847454742     Delta-E=       -0.000000004854 Rises=F Damp=F
 DIIS: error= 9.11D-07 at cycle   6 NSaved=   6.
 NSaved= 6 IEnMin= 6 EnMin= -40.1803847454742     IErMin= 6 ErrMin= 9.11D-07
 ErrMax= 9.11D-07 EMaxC= 1.00D-01 BMatC= 8.94D-12 BMatP= 2.17D-09
 IDIUse=1 WtCom= 1.00D+00 WtEn= 0.00D+00
 Coeff-Com:  0.798D-04-0.291D-03-0.329D-02 0.157D-01-0.116D+00 0.110D+01
 Coeff:      0.798D-04-0.291D-03-0.329D-02 0.157D-01-0.116D+00 0.110D+01
 Gap=     0.798 Goal=   None    Shift=    0.000
 RMSDP=3.82D-07 MaxDP=1.22D-06 DE=-4.85D-09 OVMax= 1.39D-06

 Cycle   7  Pass 1  IDiag  1:
 E= -40.1803847454900     Delta-E=       -0.000000000016 Rises=F Damp=F
 DIIS: error= 9.72D-08 at cycle   7 NSaved=   7.
 NSaved= 7 IEnMin= 7 EnMin= -40.1803847454900     IErMin= 7 ErrMin= 9.72D-08
 ErrMax= 9.72D-08 EMaxC= 1.00D-01 BMatC= 2.06D-13 BMatP= 8.94D-12
 IDIUse=1 WtCom= 1.00D+00 WtEn= 0.00D+00
 Coeff-Com: -0.101D-05-0.468D-05-0.280D-05-0.439D-03 0.115D-01-0.276D+00
 Coeff-Com:  0.126D+01
 Coeff:     -0.101D-05-0.468D-05-0.280D-05-0.439D-03 0.115D-01-0.276D+00
 Coeff:      0.126D+01
 Gap=     0.798 Goal=   None    Shift=    0.000
 RMSDP=8.62D-08 MaxDP=6.35D-07 DE=-1.58D-11 OVMax= 2.78D-07

 Cycle   8  Pass 1  IDiag  1:
 E= -40.1803847454905     Delta-E=       -0.000000000001 Rises=F Damp=F
 DIIS: error= 9.93D-10 at cycle   8 NSaved=   8.
 NSaved= 8 IEnMin= 8 EnMin= -40.1803847454905     IErMin= 8 ErrMin= 9.93D-10
 ErrMax= 9.93D-10 EMaxC= 1.00D-01 BMatC= 2.14D-17 BMatP= 2.06D-13
 IDIUse=1 WtCom= 1.00D+00 WtEn= 0.00D+00
 Coeff-Com: -0.125D-06 0.676D-06 0.631D-05-0.216D-04 0.694D-05 0.407D-02
 Coeff-Com: -0.201D-01 0.102D+01
 Coeff:     -0.125D-06 0.676D-06 0.631D-05-0.216D-04 0.694D-05 0.407D-02
 Coeff:     -0.201D-01 0.102D+01
 Gap=     0.798 Goal=   None    Shift=    0.000
 RMSDP=6.71D-10 MaxDP=2.95D-09 DE=-5.40D-13 OVMax= 1.23D-09

 SCF Done:  E(RHF) =  -40.1803847455     A.U. after    8 cycles
             Convg  =    0.6707D-09             -V/T =  1.9993
 KE= 4.020924780148D+01 PE=-1.198759488745D+02 EE= 2.605092713214D+01
 Leave Link  502 at Sat Aug 17 14:37:11 2024, MaxMem=   13107200 cpu:       0.1
 (Enter /programs/64bit/g09/g09-gfortran/bin/l601.exe)
 Copying SCF densities to generalized density rwf, IOpCl= 0 IROHF=0.

 **********************************************************************

            Population analysis using the SCF density.

 **********************************************************************

 Orbital symmetries:
       Occupied  (A1) (A1) (T2) (T2) (T2)
       Virtual   (A1) (T2) (T2) (T2) (T2) (T2) (T2) (T2) (T2) (T2)
                 (A1) (A1)
 The electronic state is 1-A1.
 Alpha  occ. eigenvalues --  -11.20751  -0.94586  -0.54302  -0.54302  -0.54302
 Alpha virt. eigenvalues --    0.25463   0.32316   0.32316   0.32316   0.74366
 Alpha virt. eigenvalues --    0.74366   0.74366   1.22539   1.22539   1.22539
 Alpha virt. eigenvalues --    1.23922   1.32717
     Molecular Orbital Coefficients:
                           1         2         3         4         5
                        (A1)--O   (A1)--O   (T2)--O   (T2)--O   (T2)--O
     Eigenvalues --   -11.20751  -0.94586  -0.54302  -0.54302  -0.54302
   1 1   C  1S          0.99616  -0.19687   0.00000   0.00000   0.00000
   2        2S          0.02543   0.37319   0.00000   0.00000   0.00000
   3        2PX         0.00000   0.00000   0.43595   0.00000   0.00000
   4        2PY         0.00000   0.00000   0.00000   0.43595   0.00000
   5        2PZ         0.00000   0.00000   0.00000   0.00000   0.43595
   6        3S         -0.01636   0.38579   0.00000   0.00000   0.00000
   7        3PX         0.00000   0.00000   0.22264   0.00000   0.00000
   8        3PY         0.00000   0.00000   0.00000   0.22264   0.00000
   9        3PZ         0.00000   0.00000   0.00000   0.00000   0.22264
  10 2   H  1S         -0.00010   0.13424   0.17360   0.17360   0.17360
  11        2S          0.00309   0.03333   0.14227   0.14227   0.14227
  12 3   H  1S         -0.00010   0.13424  -0.17360  -0.17360   0.17360
  13        2S          0.00309   0.03333  -0.14227  -0.14227   0.14227
  14 4   H  1S         -0.00010   0.13424  -0.17360   0.17360  -0.17360
  15        2S          0.00309   0.03333  -0.14227   0.14227  -0.14227
  16 5   H  1S         -0.00010   0.13424   0.17360  -0.17360  -0.17360
  17        2S          0.00309   0.03333   0.14227  -0.14227  -0.14227
                           6         7         8         9        10
                        (A1)--V   (T2)--V   (T2)--V   (T2)--V   (T2)--V
     Eigenvalues --     0.25463   0.32316   0.32316   0.32316   0.74366
   1 1   C  1S         -0.15397   0.00000   0.00000   0.00000   0.00000
   2        2S          0.09500   0.00000   0.00000   0.00000   0.00000
   3        2PX         0.00000   0.00000   0.00000   0.30105   0.00000
   4        2PY         0.00000   0.00000   0.30105   0.00000   0.00000
   5        2PZ         0.00000   0.30105   0.00000   0.00000  -0.77669
   6        3S          2.75564   0.00000   0.00000   0.00000   0.00000
   7        3PX         0.00000   0.00000   0.00000   1.49197   0.00000
   8        3PY         0.00000   0.00000   1.49197   0.00000   0.00000
   9        3PZ         0.00000   1.49197   0.00000   0.00000   1.46152
  10 2   H  1S          0.00202  -0.04848  -0.04848  -0.04848  -0.31696
  11        2S         -1.03399  -1.15662  -1.15662  -1.15662  -0.11127
  12 3   H  1S          0.00202  -0.04848   0.04848   0.04848  -0.31696
  13        2S         -1.03399  -1.15662   1.15662   1.15662  -0.11127
  14 4   H  1S          0.00202   0.04848  -0.04848   0.04848   0.31696
  15        2S         -1.03399   1.15662  -1.15662   1.15662   0.11127
  16 5   H  1S          0.00202   0.04848   0.04848  -0.04848   0.31696
  17        2S         -1.03399   1.15662   1.15662  -1.15662   0.11127
                          11        12        13        14        15
                        (T2)--V   (T2)--V   (T2)--V   (T2)--V   (T2)--V
     Eigenvalues --     0.74366   0.74366   1.22539   1.22539   1.22539
   1 1   C  1S          0.00000   0.00000   0.00000   0.00000   0.00000
   2        2S          0.00000   0.00000   0.00000   0.00000   0.00000
   3        2PX        -0.77669   0.00000   0.00000  -0.88961   0.00000
   4        2PY         0.00000  -0.77669   0.00000   0.00000  -0.88961
   5        2PZ         0.00000   0.00000  -0.88961   0.00000   0.00000
   6        3S          0.00000   0.00000   0.00000   0.00000   0.00000
   7        3PX         1.46152   0.00000   0.00000   1.02963   0.00000
   8        3PY         0.00000   1.46152   0.00000   0.00000   1.02963
   9        3PZ         0.00000   0.00000   1.02963   0.00000   0.00000
  10 2   H  1S         -0.31696  -0.31696   0.59502   0.59502   0.59502
  11        2S         -0.11127  -0.11127  -0.90498  -0.90498  -0.90498
  12 3   H  1S          0.31696   0.31696   0.59502  -0.59502  -0.59502
  13        2S          0.11127   0.11127  -0.90498   0.90498   0.90498
  14 4   H  1S          0.31696  -0.31696  -0.59502  -0.59502   0.59502
  15        2S          0.11127  -0.11127   0.90498   0.90498  -0.90498
  16 5   H  1S         -0.31696   0.31696  -0.59502   0.59502  -0.59502
  17        2S         -0.11127   0.11127   0.90498  -0.90498   0.90498
                          16        17
                        (A1)--V   (A1)--V
     Eigenvalues --     1.23922   1.32717
   1 1   C  1S          0.10344  -0.07917
   2        2S         -1.04651  -2.15291
   3        2PX         0.00000   0.00000
   4        2PY         0.00000   0.00000
   5        2PZ         0.00000   0.00000
   6        3S          1.43032   5.15870
   7        3PX         0.00000   0.00000
   8        3PY         0.00000   0.00000
   9        3PZ         0.00000   0.00000
  10 2   H  1S          0.62168  -0.35656
  11        2S         -0.57633  -0.94143
  12 3   H  1S          0.62168  -0.35656
  13        2S         -0.57633  -0.94143
  14 4   H  1S          0.62168  -0.35656
  15        2S         -0.57633  -0.94143
  16 5   H  1S          0.62168  -0.35656
  17        2S         -0.57633  -0.94143
     Density Matrix:
                           1         2         3         4         5
   1 1   C  1S          2.06216
   2        2S         -0.09627   0.27984
   3        2PX         0.00000   0.00000   0.38010
   4        2PY         0.00000   0.00000   0.00000   0.38010
   5        2PZ         0.00000   0.00000   0.00000   0.00000   0.38010
   6        3S         -0.18449   0.28711   0.00000   0.00000   0.00000
   7        3PX         0.00000   0.00000   0.19412   0.00000   0.00000
   8        3PY         0.00000   0.00000   0.00000   0.19412   0.00000
   9        3PZ         0.00000   0.00000   0.00000   0.00000   0.19412
  10 2   H  1S         -0.05306   0.10019   0.15136   0.15136   0.15136
  11        2S         -0.00696   0.02503   0.12404   0.12404   0.12404
  12 3   H  1S         -0.05306   0.10019  -0.15136  -0.15136   0.15136
  13        2S         -0.00696   0.02503  -0.12404  -0.12404   0.12404
  14 4   H  1S         -0.05306   0.10019  -0.15136   0.15136  -0.15136
  15        2S         -0.00696   0.02503  -0.12404   0.12404  -0.12404
  16 5   H  1S         -0.05306   0.10019   0.15136  -0.15136  -0.15136
  17        2S         -0.00696   0.02503   0.12404  -0.12404  -0.12404
                           6         7         8         9        10
   6        3S          0.29820
   7        3PX         0.00000   0.09913
   8        3PY         0.00000   0.00000   0.09913
   9        3PZ         0.00000   0.00000   0.00000   0.09913
  10 2   H  1S          0.10358   0.07730   0.07730   0.07730   0.21687
  11        2S          0.02561   0.06335   0.06335   0.06335   0.15713
  12 3   H  1S          0.10358  -0.07730  -0.07730   0.07730  -0.02424
  13        2S          0.02561  -0.06335  -0.06335   0.06335  -0.04045
  14 4   H  1S          0.10358  -0.07730   0.07730  -0.07730  -0.02424
  15        2S          0.02561  -0.06335   0.06335  -0.06335  -0.04045
  16 5   H  1S          0.10358   0.07730  -0.07730  -0.07730  -0.02424
  17        2S          0.02561   0.06335  -0.06335  -0.06335  -0.04045
                          11        12        13        14        15
  11        2S          0.12368
  12 3   H  1S         -0.04045   0.21687
  13        2S         -0.03824   0.15713   0.12368
  14 4   H  1S         -0.04045  -0.02424  -0.04045   0.21687
  15        2S         -0.03824  -0.04045  -0.03824   0.15713   0.12368
  16 5   H  1S         -0.04045  -0.02424  -0.04045  -0.02424  -0.04045
  17        2S         -0.03824  -0.04045  -0.03824  -0.04045  -0.03824
                          16        17
  16 5   H  1S          0.21687
  17        2S          0.15713   0.12368
    Full Mulliken population analysis:
                           1         2         3         4         5
   1 1   C  1S          2.06216
   2        2S         -0.02109   0.27984
   3        2PX         0.00000   0.00000   0.38010
   4        2PY         0.00000   0.00000   0.00000   0.38010
   5        2PZ         0.00000   0.00000   0.00000   0.00000   0.38010
   6        3S         -0.03399   0.23321   0.00000   0.00000   0.00000
   7        3PX         0.00000   0.00000   0.11060   0.00000   0.00000
   8        3PY         0.00000   0.00000   0.00000   0.11060   0.00000
   9        3PZ         0.00000   0.00000   0.00000   0.00000   0.11060
  10 2   H  1S         -0.00174   0.02742   0.03228   0.03228   0.03228
  11        2S         -0.00064   0.01192   0.01903   0.01903   0.01903
  12 3   H  1S         -0.00174   0.02742   0.03228   0.03228   0.03228
  13        2S         -0.00064   0.01192   0.01903   0.01903   0.01903
  14 4   H  1S         -0.00174   0.02742   0.03228   0.03228   0.03228
  15        2S         -0.00064   0.01192   0.01903   0.01903   0.01903
  16 5   H  1S         -0.00174   0.02742   0.03228   0.03228   0.03228
  17        2S         -0.00064   0.01192   0.01903   0.01903   0.01903
                           6         7         8         9        10
   6        3S          0.29820
   7        3PX         0.00000   0.09913
   8        3PY         0.00000   0.00000   0.09913
   9        3PZ         0.00000   0.00000   0.00000   0.09913
  10 2   H  1S          0.03905   0.02298   0.02298   0.02298   0.21687
  11        2S          0.01805   0.02131   0.02131   0.02131   0.10344
  12 3   H  1S          0.03905   0.02298   0.02298   0.02298  -0.00045
  13        2S          0.01805   0.02131   0.02131   0.02131  -0.00603
  14 4   H  1S          0.03905   0.02298   0.02298   0.02298  -0.00045
  15        2S          0.01805   0.02131   0.02131   0.02131  -0.00603
  16 5   H  1S          0.03905   0.02298   0.02298   0.02298  -0.00045
  17        2S          0.01805   0.02131   0.02131   0.02131  -0.00603
                          11        12        13        14        15
  11        2S          0.12368
  12 3   H  1S         -0.00603   0.21687
  13        2S         -0.01536   0.10344   0.12368
  14 4   H  1S         -0.00603  -0.00045  -0.00603   0.21687
  15        2S         -0.01536  -0.00603  -0.01536   0.10344   0.12368
  16 5   H  1S         -0.00603  -0.00045  -0.00603  -0.00045  -0.00603
  17        2S         -0.01536  -0.00603  -0.01536  -0.00603  -0.01536
                          16        17
  16 5   H  1S          0.21687
  17        2S          0.10344   0.12368
     Gross orbital populations:
                           1
   1 1   C  1S          1.99757
   2        2S          0.64932
   3        2PX         0.69594
   4        2PY         0.69594
   5        2PZ         0.69594
   6        3S          0.72582
   7        3PX         0.38691
   8        3PY         0.38691
   9        3PZ         0.38691
  10 2   H  1S          0.53139
  11        2S          0.31330
  12 3   H  1S          0.53139
  13        2S          0.31330
  14 4   H  1S          0.53139
  15        2S          0.31330
  16 5   H  1S          0.53139
  17        2S          0.31330
          Condensed to atoms (all electrons):
              1          2          3          4          5
     1  C    5.097758   0.380871   0.380871   0.380871   0.380871
     2  H    0.380871   0.547426  -0.027869  -0.027869  -0.027869
     3  H    0.380871  -0.027869   0.547426  -0.027869  -0.027869
     4  H    0.380871  -0.027869  -0.027869   0.547426  -0.027869
     5  H    0.380871  -0.027869  -0.027869  -0.027869   0.547426
 Mulliken atomic charges:
              1
     1  C   -0.621243
     2  H    0.155311
     3  H    0.155311
     4  H    0.155311
     5  H    0.155311
 Sum of Mulliken atomic charges =   0.00000
 Mulliken charges with hydrogens summed into heavy atoms:
              1
     1  C    0.000000
 Sum of Mulliken charges with hydrogens summed into heavy atoms =   0.00000
 Electronic spatial extent (au):  <R**2>=             35.7992
 Charge=              0.0000 electrons
 Dipole moment (field-independent basis, Debye):
    X=             -0.0000    Y=             -0.0000    Z=              0.0000  Tot=              0.0000
 Quadrupole moment (field-independent basis, Debye-Ang):
   XX=             -8.4414   YY=             -8.4414   ZZ=             -8.4414
   XY=             -0.0000   XZ=             -0.0000   YZ=             -0.0000
 Traceless Quadrupole moment (field-independent basis, Debye-Ang):
   XX=             -0.0000   YY=             -0.0000   ZZ=              0.0000
   XY=             -0.0000   XZ=             -0.0000   YZ=             -0.0000
 Octapole moment (field-independent basis, Debye-Ang**2):
  XXX=              0.0000  YYY=             -0.0000  ZZZ=              0.0000  XYY=              0.0000
  XXY=              0.0000  XXZ=              0.0000  XZZ=              0.0000  YZZ=             -0.0000
  YYZ=             -0.0000  XYZ=              0.6355
 Hexadecapole moment (field-independent basis, Debye-Ang**3):
 XXXX=            -16.0215 YYYY=            -16.0215 ZZZZ=            -16.0215 XXXY=              0.0000
 XXXZ=             -0.0000 YYYX=             -0.0000 YYYZ=             -0.0000 ZZZX=             -0.0000
 ZZZY=             -0.0000 XXYY=             -4.9288 XXZZ=             -4.9288 YYZZ=             -4.9288
 XXYZ=             -0.0000 YYXZ=             -0.0000 ZZXY=             -0.0000
 N-N= 1.343538919541D+01 E-N=-1.198759488749D+02  KE= 4.020924780148D+01
 Symmetry A    KE= 3.452920513020D+01
 Symmetry B1   KE= 1.893347557092D+00
 Symmetry B2   KE= 1.893347557092D+00
 Symmetry B3   KE= 1.893347557092D+00
 Orbital energies and kinetic energies (alpha):
                                 1                 2
   1         (A1)--O         -11.207508         16.018101
   2         (A1)--O          -0.945857          1.246502
   3         (T2)--O          -0.543019          0.946674
   4         (T2)--O          -0.543019          0.946674
   5         (T2)--O          -0.543019          0.946674
   6         (A1)--V           0.254627          0.852677
   7         (T2)--V           0.323162          0.729299
   8         (T2)--V           0.323162          0.729299
   9         (T2)--V           0.323162          0.729299
  10         (T2)--V           0.743665          1.605131
  11         (T2)--V           0.743665          1.605131
  12         (T2)--V           0.743665          1.605131
  13         (T2)--V           1.225391          2.834296
  14         (T2)--V           1.225391          2.834296
  15         (T2)--V           1.225391          2.834296
  16         (A1)--V           1.239220          2.939433
  17         (A1)--V           1.327168          2.016107
 Total kinetic energy from orbitals= 4.020924780148D+01
 No NMR shielding tensors so no spin-rotation constants.
 Leave Link  601 at Sat Aug 17 14:37:12 2024, MaxMem=   13107200 cpu:       0.1
 (Enter /programs/64bit/g09/g09-gfortran/bin/l701.exe)
 Compute integral first derivatives.
 ... and contract with generalized density number  0.
 Leave Link  701 at Sat Aug 17 14:37:12 2024, MaxMem=   13107200 cpu:       0.1
 (Enter /programs/64bit/g09/g09-gfortran/bin/l702.exe)
 L702 exits ... SP integral derivatives will be done elsewhere.
 Leave Link  702 at Sat Aug 17 14:37:12 2024, MaxMem=   13107200 cpu:       0.0
 (Enter /programs/64bit/g09/g09-gfortran/bin/l703.exe)
 Compute integral first derivatives, UseDBF=F ICtDFT=           0.
 Integral derivatives from FoFDir, PRISM(SPDF).
 Calling FoFJK, ICntrl=      2127 FMM=F ISym2X=1 I1Cent= 0 IOpClX= 0 NMat=1 NMatS=1 NMatT=0.
 FoFCou: FMM=F IPFlag=           0 FMFlag=      100000 FMFlg1=         800
         NFxFlg=           0 DoJE=F BraDBF=F KetDBF=F FulRan=T
         Omega=  0.000000  0.000000  1.000000  0.000000  0.000000 ICntrl=    2127 IOpCl=  0
         NMat0=    1 NMatS0=    1 NMatT0=    0 NMatD0=    1 NMtDS0=    0 NMtDT0=    0
         I1Cent=           0 NGrid=           0.
 Petite list used in FoFCou.
 Leave Link  703 at Sat Aug 17 14:37:12 2024, MaxMem=   13107200 cpu:       0.1
 (Enter /programs/64bit/g09/g09-gfortran/bin/l716.exe)
 Dipole        =-2.22044605D-16-2.22044605D-16-2.22044605D-16
 ***** Axes restored to original set *****
 -------------------------------------------------------------------
 Center     Atomic                   Forces (Hartrees/Bohr)
 Number     Number              X              Y              Z
 -------------------------------------------------------------------
      1        6           0.000000000   -0.000000000    0.000000000
      2        1          -0.000000000    0.000000000   -0.005638305
      3        1          -0.005315845   -0.000000000    0.001879435
      4        1           0.002657922    0.004603657    0.001879435
      5        1           0.002657922   -0.004603657    0.001879435
 -------------------------------------------------------------------
 Cartesian Forces:  Max     0.005638305 RMS     0.002911608
 Leave Link  716 at Sat Aug 17 14:37:12 2024, MaxMem=   13107200 cpu:       0.0
 (Enter /programs/64bit/g09/g09-gfortran/bin/l103.exe)

 GradGradGradGradGradGradGradGradGradGradGradGradGradGradGradGradGradGrad
 Berny optimization.
 Internal  Forces:  Max     0.005638305 RMS     0.003013801
 Search for a local minimum.
 Step number   1 out of a maximum of   24
 All quantities printed in internal units (Hartrees-Bohrs-Radians)
 RMS Force = .30138D-02 SwitMx=.10000D-02 MixMth= 1
 Mixed Optimization -- RFO/linear search
 Second derivative matrix not updated -- first step.
 The second derivative matrix:
                          R1        R2        R3        R4        A1
           R1           0.34813
           R2           0.00000   0.34813
           R3           0.00000   0.00000   0.34813
           R4           0.00000   0.00000   0.00000   0.34813
           A1           0.00000   0.00000   0.00000   0.00000   0.16000
           A2           0.00000   0.00000   0.00000   0.00000   0.00000
           A3           0.00000   0.00000   0.00000   0.00000   0.00000
           A4           0.00000   0.00000   0.00000   0.00000   0.00000
           A5           0.00000   0.00000   0.00000   0.00000   0.00000
           A6           0.00000   0.00000   0.00000   0.00000   0.00000
           D1           0.00000   0.00000   0.00000   0.00000   0.00000
           D2           0.00000   0.00000   0.00000   0.00000   0.00000
           D3           0.00000   0.00000   0.00000   0.00000   0.00000
           D4           0.00000   0.00000   0.00000   0.00000   0.00000
                          A2        A3        A4        A5        A6
           A2           0.16000
           A3           0.00000   0.16000
           A4           0.00000   0.00000   0.16000
           A5           0.00000   0.00000   0.00000   0.16000
           A6           0.00000   0.00000   0.00000   0.00000   0.16000
           D1           0.00000   0.00000   0.00000   0.00000   0.00000
           D2           0.00000   0.00000   0.00000   0.00000   0.00000
           D3           0.00000   0.00000   0.00000   0.00000   0.00000
           D4           0.00000   0.00000   0.00000   0.00000   0.00000
                          D1        D2        D3        D4
           D1           0.00235
           D2           0.00000   0.00235
           D3           0.00000   0.00000   0.00235
           D4           0.00000   0.00000   0.00000   0.00235
     Eigenvalues ---    0.05086   0.05718   0.08643   0.16000   0.16000
     Eigenvalues ---    0.34813   0.34813   0.34813   0.348131000.00000
     Eigenvalues --- 1000.000001000.000001000.000001000.00000
 RFO step:  Lambda=-3.64892312D-04 EMin= 5.08565158D-02
 Linear search not attempted -- first point.
 Iteration  1 RMS(Cart)=  0.00864814 RMS(Int)=  0.00000000
 Iteration  2 RMS(Cart)=  0.00000000 RMS(Int)=  0.00000000
 ClnCor:  largest displacement from symmetrization is 1.47D-14 for atom     2.
 Variable       Old X    -DE/DX   Delta X   Delta X   Delta X     New X
                                 (Linear)    (Quad)   (Total)
    R1        2.05980  -0.00564   0.00000  -0.01618  -0.01618   2.04362
    R2        2.05980  -0.00564   0.00000  -0.01618  -0.01618   2.04362
    R3        2.05980  -0.00564   0.00000  -0.01618  -0.01618   2.04362
    R4        2.05980  -0.00564   0.00000  -0.01618  -0.01618   2.04362
    A1        1.91063   0.00000   0.00000   0.00000   0.00000   1.91063
    A2        1.91063   0.00000   0.00000   0.00000  -0.00000   1.91063
    A3        1.91063  -0.00000   0.00000  -0.00000   0.00000   1.91063
    A4        1.91063  -0.00000   0.00000  -0.00000   0.00000   1.91063
    A5        1.91063   0.00000   0.00000   0.00000  -0.00000   1.91063
    A6        1.91063   0.00000   0.00000   0.00000   0.00000   1.91063
    D1       -2.09440  -0.00000   0.00000  -0.00000  -0.00000  -2.09440
    D2        2.09440   0.00000   0.00000   0.00000   0.00000   2.09440
    D3       -2.09440   0.00000   0.00000   0.00000   0.00000  -2.09440
    D4        2.09440  -0.00000   0.00000  -0.00000   0.00000   2.09440
         Item               Value     Threshold  Converged?
 Maximum Force            0.005638     0.000450     NO 
 RMS     Force            0.003014     0.000300     NO 
 Maximum Displacement     0.016179     0.001800     NO 
 RMS     Displacement     0.008648     0.001200     NO 
 Predicted change in Energy=-1.826374D-04
 GradGradGradGradGradGradGradGradGradGradGradGradGradGradGradGradGradGrad

 Leave Link  103 at Sat Aug 17 14:37:12 2024, MaxMem=   13107200 cpu:       0.0
 (Enter /programs/64bit/g09/g09-gfortran/bin/l202.exe)
                          Input orientation:                          
 ---------------------------------------------------------------------
 Center     Atomic      Atomic             Coordinates (Angstroms)
 Number     Number       Type             X           Y           Z
 ---------------------------------------------------------------------
      1          6           0        0.000000    0.000000   -0.000000
      2          1           0        0.000000   -0.000000    1.081438
      3          1           0        1.019590   -0.000000   -0.360479
      4          1           0       -0.509795   -0.882991   -0.360479
      5          1           0       -0.509795    0.882991   -0.360479
 ---------------------------------------------------------------------
                    Distance matrix (angstroms):
                    1          2          3          4          5
     1  C    0.000000
     2  H    1.081438   0.000000
     3  H    1.081438   1.765981   0.000000
     4  H    1.081438   1.765981   1.765981   0.000000
     5  H    1.081438   1.765981   1.765981   1.765981   0.000000
 Stoichiometry    CH4
 Framework group  TD[O(C),4C3(H)]
 Deg. of freedom     1
 Prev. full point group           TD      NOp  24
 Prev. largest Abelian subgroup   D2      NOp   4
       concise Abelian subgroup   D2      NOp   4
                   Standard orientation:
 ---------------------------------------------------------------------
 Center     Atomic                     Coordinates (Angstroms)
 Number     Number                        X           Y           Z
 ---------------------------------------------------------------------
      1          6                    0.000000    0.000000    0.000000
      2          1                    0.795876    0.596907    0.424020
      3          1                   -0.585108   -0.438831    0.796608
      4          1                   -0.635178    0.627355   -0.610314
      5          1                    0.424411   -0.785430   -0.610314
 ---------------------------------------------------------------------
 TstSym:  Max error for IOp=  4 IAt=    3 Err= 7.04D-01
 TstSym:  IOp= 25 I=    6 IP=    4 Err= 7.04D-01
  CI=  0.000000000000D+00  0.000000000000D+00  0.000000000000D+00
   T=  1.105694148362D+00  8.292706112713D-01  1.505371318654D+00
 CIP= -1.200312732150D+00  1.185528726313D+00 -1.153326964739D+00
 Unable to use previous symmetry information.  Redetermining point group.
 No symmetry information on checkpoint file.  Reassigning symmetry.
 Symm:  InNGrp=TD   InAxis=0.
 Stoichiometry    CH4
 Framework group  TD[O(C),4C3(H)]
 Deg. of freedom     1
 Full point group                 TD      NOp  24
 Largest Abelian subgroup         D2      NOp   4
 Largest concise Abelian subgroup D2      NOp   4
                         Standard orientation:                         
 ---------------------------------------------------------------------
 Center     Atomic      Atomic             Coordinates (Angstroms)
 Number     Number       Type             X           Y           Z
 ---------------------------------------------------------------------
      1          6           0        0.000000    0.000000    0.000000
      2          1           0        0.624369    0.624369    0.624369
      3          1           0       -0.624369   -0.624369    0.624369
      4          1           0       -0.624369    0.624369   -0.624369
      5          1           0        0.624369   -0.624369   -0.624369
 ---------------------------------------------------------------------
 Rotational constants (GHZ):    160.7902804    160.7902804    160.7902804
 Leave Link  202 at Sat Aug 17 14:37:12 2024, MaxMem=   13107200 cpu:       0.0
 (Enter /programs/64bit/g09/g09-gfortran/bin/l301.exe)
 Standard basis: 6-31G (6D, 7F)
 Ernie: Thresh=  0.10000D-02 Tol=  0.10000D-05 Strict=F.
 There are     5 symmetry adapted basis functions of A   symmetry.
 There are     4 symmetry adapted basis functions of B1  symmetry.
 There are     4 symmetry adapted basis functions of B2  symmetry.
 There are     4 symmetry adapted basis functions of B3  symmetry.
 Integral buffers will be    131072 words long.
 Raffenetti 1 integral format.
 Two-electron integral symmetry is turned on.
    17 basis functions,    38 primitive gaussians,    17 cartesian basis functions
     5 alpha electrons        5 beta electrons
       nuclear repulsion energy        13.5417560375 Hartrees.
 IExCor=    0 DFT=F Ex=HF Corr=None ExCW=0 ScaHFX=  1.000000
 ScaDFX=  1.000000  1.000000  1.000000  1.000000 ScalE2=  1.000000  1.000000
 IRadAn=      0 IRanWt=     -1 IRanGd=            0 ICorTp=0
 NAtoms=    5 NActive=    5 NUniq=    2 SFac= 3.00D+00 NAtFMM=   80 NAOKFM=F Big=F
 Leave Link  301 at Sat Aug 17 14:37:12 2024, MaxMem=   13107200 cpu:       0.1
 (Enter /programs/64bit/g09/g09-gfortran/bin/l302.exe)
 NPDir=0 NMtPBC=     1 NCelOv=     1 NCel=       1 NClECP=     1 NCelD=      1
         NCelK=      1 NCelE2=     1 NClLst=     1 CellRange=     0.0.
 One-electron integrals computed using PRISM.
 One-electron integral symmetry used in STVInt
 NBasis=    17 RedAO= T  NBF=     5     4     4     4
 NBsUse=    17 1.00D-06 NBFU=     5     4     4     4
 Leave Link  302 at Sat Aug 17 14:37:13 2024, MaxMem=   13107200 cpu:       0.1
 (Enter /programs/64bit/g09/g09-gfortran/bin/l303.exe)
 DipDrv:  MaxL=1.
 Leave Link  303 at Sat Aug 17 14:37:13 2024, MaxMem=   13107200 cpu:       0.0
 (Enter /programs/64bit/g09/g09-gfortran/bin/l401.exe)
 Initial guess read from the read-write file.
 B after Tr=     0.000000    0.000000    0.000000
         Rot=    1.000000    0.000000    0.000000    0.000000 Ang=   0.00 deg.
 Guess basis will be translated and rotated to current coordinates.
 Initial guess orbital symmetries:
       Occupied  (A1) (A1) (T2) (T2) (T2)
       Virtual   (A1) (T2) (T2) (T2) (T2) (T2) (T2) (T2) (T2) (T2)
                 (A1) (A1)
 The electronic state of the initial guess is 1-A1.
 Leave Link  401 at Sat Aug 17 14:37:13 2024, MaxMem=   13107200 cpu:       0.1
 (Enter /programs/64bit/g09/g09-gfortran/bin/l502.exe)
 Closed shell SCF:
 Requested convergence on RMS density matrix=1.00D-08 within 128 cycles.
 Requested convergence on MAX density matrix=1.00D-06.
 Requested convergence on             energy=1.00D-06.
 No special actions if energy rises.
 Using DIIS extrapolation, IDIIS=  1040.
 Integral symmetry usage will be decided dynamically.
 Keep R1 ints in memory in canonical form, NReq=831858.
 IEnd=       20063 IEndB=       20063 NGot=    13107200 MDV=    13092431
 LenX=    13092431 LenY=    13091549
 Symmetry not used in FoFDir.
 MinBra= 0 MaxBra= 1 Meth= 1.
 IRaf=       0 NMat=   1 IRICut=       1 DoRegI=T DoRafI=F ISym2E= 0 JSym2E=0.

 Cycle   1  Pass 1  IDiag  1:
 E= -40.1805017699984    
 DIIS: error= 1.37D-03 at cycle   1 NSaved=   1.
 NSaved= 1 IEnMin= 1 EnMin= -40.1805017699984     IErMin= 1 ErrMin= 1.37D-03
 ErrMax= 1.37D-03 EMaxC= 1.00D-01 BMatC= 4.03D-05 BMatP= 4.03D-05
 IDIUse=3 WtCom= 9.86D-01 WtEn= 1.37D-02
 Coeff-Com:  0.100D+01
 Coeff-En:   0.100D+01
 Coeff:      0.100D+01
 Gap=     0.803 Goal=   None    Shift=    0.000
 GapD=    0.803 DampG=2.000 DampE=1.000 DampFc=2.0000 IDamp=-1.
 RMSDP=4.06D-04 MaxDP=1.97D-03              OVMax= 2.53D-03

 Cycle   2  Pass 1  IDiag  1:
 E= -40.1805474763793     Delta-E=       -0.000045706381 Rises=F Damp=F
 DIIS: error= 4.77D-04 at cycle   2 NSaved=   2.
 NSaved= 2 IEnMin= 2 EnMin= -40.1805474763793     IErMin= 2 ErrMin= 4.77D-04
 ErrMax= 4.77D-04 EMaxC= 1.00D-01 BMatC= 5.37D-06 BMatP= 4.03D-05
 IDIUse=3 WtCom= 9.95D-01 WtEn= 4.77D-03
 Coeff-Com:  0.208D+00 0.792D+00
 Coeff-En:   0.000D+00 0.100D+01
 Coeff:      0.207D+00 0.793D+00
 Gap=     0.801 Goal=   None    Shift=    0.000
 RMSDP=9.83D-05 MaxDP=6.04D-04 DE=-4.57D-05 OVMax= 5.88D-04

 Cycle   3  Pass 1  IDiag  1:
 E= -40.1805527588731     Delta-E=       -0.000005282494 Rises=F Damp=F
 DIIS: error= 8.46D-05 at cycle   3 NSaved=   3.
 NSaved= 3 IEnMin= 3 EnMin= -40.1805527588731     IErMin= 3 ErrMin= 8.46D-05
 ErrMax= 8.46D-05 EMaxC= 1.00D-01 BMatC= 1.28D-07 BMatP= 5.37D-06
 IDIUse=1 WtCom= 1.00D+00 WtEn= 0.00D+00
 Coeff-Com: -0.618D-01-0.229D-01 0.108D+01
 Coeff:     -0.618D-01-0.229D-01 0.108D+01
 Gap=     0.802 Goal=   None    Shift=    0.000
 RMSDP=2.46D-05 MaxDP=1.28D-04 DE=-5.28D-06 OVMax= 1.28D-04

 Cycle   4  Pass 1  IDiag  1:
 E= -40.1805529391044     Delta-E=       -0.000000180231 Rises=F Damp=F
 DIIS: error= 5.09D-06 at cycle   4 NSaved=   4.
 NSaved= 4 IEnMin= 4 EnMin= -40.1805529391044     IErMin= 4 ErrMin= 5.09D-06
 ErrMax= 5.09D-06 EMaxC= 1.00D-01 BMatC= 8.00D-10 BMatP= 1.28D-07
 IDIUse=1 WtCom= 1.00D+00 WtEn= 0.00D+00
 Coeff-Com:  0.112D-01 0.625D-02-0.237D+00 0.122D+01
 Coeff:      0.112D-01 0.625D-02-0.237D+00 0.122D+01
 Gap=     0.802 Goal=   None    Shift=    0.000
 RMSDP=5.39D-06 MaxDP=1.72D-05 DE=-1.80D-07 OVMax= 1.77D-05

 Cycle   5  Pass 1  IDiag  1:
 E= -40.1805529409657     Delta-E=       -0.000000001861 Rises=F Damp=F
 DIIS: error= 7.53D-07 at cycle   5 NSaved=   5.
 NSaved= 5 IEnMin= 5 EnMin= -40.1805529409657     IErMin= 5 ErrMin= 7.53D-07
 ErrMax= 7.53D-07 EMaxC= 1.00D-01 BMatC= 1.49D-11 BMatP= 8.00D-10
 IDIUse=1 WtCom= 1.00D+00 WtEn= 0.00D+00
 Coeff-Com: -0.153D-02-0.507D-03 0.328D-01-0.269D+00 0.124D+01
 Coeff:     -0.153D-02-0.507D-03 0.328D-01-0.269D+00 0.124D+01
 Gap=     0.802 Goal=   None    Shift=    0.000
 RMSDP=8.71D-07 MaxDP=2.76D-06 DE=-1.86D-09 OVMax= 2.70D-06

 Cycle   6  Pass 1  IDiag  1:
 E= -40.1805529410013     Delta-E=       -0.000000000036 Rises=F Damp=F
 DIIS: error= 1.49D-07 at cycle   6 NSaved=   6.
 NSaved= 6 IEnMin= 6 EnMin= -40.1805529410013     IErMin= 6 ErrMin= 1.49D-07
 ErrMax= 1.49D-07 EMaxC= 1.00D-01 BMatC= 1.34D-13 BMatP= 1.49D-11
 IDIUse=1 WtCom= 1.00D+00 WtEn= 0.00D+00
 Coeff-Com:  0.438D-03 0.204D-03-0.966D-02 0.824D-01-0.409D+00 0.134D+01
 Coeff:      0.438D-03 0.204D-03-0.966D-02 0.824D-01-0.409D+00 0.134D+01
 Gap=     0.802 Goal=   None    Shift=    0.000
 RMSDP=3.78D-08 MaxDP=2.84D-07 DE=-3.55D-11 OVMax= 2.38D-07

 Cycle   7  Pass 1  IDiag  1:
 E= -40.1805529410015     Delta-E=       -0.000000000000 Rises=F Damp=F
 DIIS: error= 3.44D-09 at cycle   7 NSaved=   7.
 NSaved= 7 IEnMin= 7 EnMin= -40.1805529410015     IErMin= 7 ErrMin= 3.44D-09
 ErrMax= 3.44D-09 EMaxC= 1.00D-01 BMatC= 1.82D-16 BMatP= 1.34D-13
 IDIUse=1 WtCom= 1.00D+00 WtEn= 0.00D+00
 Coeff-Com: -0.475D-04-0.239D-04 0.106D-02-0.915D-02 0.459D-01-0.172D+00
 Coeff-Com:  0.113D+01
 Coeff:     -0.475D-04-0.239D-04 0.106D-02-0.915D-02 0.459D-01-0.172D+00
 Coeff:      0.113D+01
 Gap=     0.802 Goal=   None    Shift=    0.000
 RMSDP=2.38D-09 MaxDP=2.47D-08 DE=-2.77D-13 OVMax= 1.10D-08

 SCF Done:  E(RHF) =  -40.1805529410     A.U. after    7 cycles
             Convg  =    0.2382D-08             -V/T =  1.9981
 KE= 4.025806603245D+01 PE=-1.201259187502D+02 EE= 2.614554373926D+01
 Leave Link  502 at Sat Aug 17 14:37:14 2024, MaxMem=   13107200 cpu:       0.1
 (Enter /programs/64bit/g09/g09-gfortran/bin/l701.exe)
 Compute integral first derivatives.
 ... and contract with generalized density number  0.
 Leave Link  701 at Sat Aug 17 14:37:14 2024, MaxMem=   13107200 cpu:       0.1
 (Enter /programs/64bit/g09/g09-gfortran/bin/l702.exe)
 L702 exits ... SP integral derivatives will be done elsewhere.
 Leave Link  702 at Sat Aug 17 14:37:14 2024, MaxMem=   13107200 cpu:       0.0
 (Enter /programs/64bit/g09/g09-gfortran/bin/l703.exe)
 Compute integral first derivatives, UseDBF=F ICtDFT=           0.
 Integral derivatives from FoFDir, PRISM(SPDF).
 Calling FoFJK, ICntrl=      2127 FMM=F ISym2X=1 I1Cent= 0 IOpClX= 0 NMat=1 NMatS=1 NMatT=0.
 FoFCou: FMM=F IPFlag=           0 FMFlag=      100000 FMFlg1=         800
         NFxFlg=           0 DoJE=F BraDBF=F KetDBF=F FulRan=T
         Omega=  0.000000  0.000000  1.000000  0.000000  0.000000 ICntrl=    2127 IOpCl=  0
         NMat0=    1 NMatS0=    1 NMatT0=    0 NMatD0=    1 NMtDS0=    0 NMtDT0=    0
         I1Cent=           0 NGrid=           0.
 Petite list used in FoFCou.
 Leave Link  703 at Sat Aug 17 14:37:15 2024, MaxMem=   13107200 cpu:       0.1
 (Enter /programs/64bit/g09/g09-gfortran/bin/l716.exe)
 Dipole        = 4.44089210D-16 4.44089210D-16 0.00000000D+00
 ***** Axes restored to original set *****
 -------------------------------------------------------------------
 Center     Atomic                   Forces (Hartrees/Bohr)
 Number     Number              X              Y              Z
 -------------------------------------------------------------------
      1        6           0.000000000   -0.000000000   -0.000000000
      2        1          -0.000000000    0.000000000    0.000488023
      3        1           0.000460112   -0.000000000   -0.000162674
      4        1          -0.000230056   -0.000398469   -0.000162674
      5        1          -0.000230056    0.000398469   -0.000162674
 -------------------------------------------------------------------
 Cartesian Forces:  Max     0.000488023 RMS     0.000252014
 Leave Link  716 at Sat Aug 17 14:37:15 2024, MaxMem=   13107200 cpu:       0.0
 (Enter /programs/64bit/g09/g09-gfortran/bin/l103.exe)

 GradGradGradGradGradGradGradGradGradGradGradGradGradGradGradGradGradGrad
 Berny optimization.
 Using GEDIIS/GDIIS optimizer.
 Internal  Forces:  Max     0.000488023 RMS     0.000260859
 Search for a local minimum.
 Step number   2 out of a maximum of   24
 All quantities printed in internal units (Hartrees-Bohrs-Radians)
 RMS Force = .26086D-03 SwitMx=.10000D-02 MixMth= 2
 Mixed Optimization -- En-DIIS/RFO-DIIS
 Update second derivatives using D2CorX and points    1    2
 DE= -1.68D-04 DEPred=-1.83D-04 R= 9.21D-01
 SS=  1.41D+00  RLast= 3.24D-02 DXNew= 5.0454D-01 9.7075D-02
 Trust test= 9.21D-01 RLast= 3.24D-02 DXMaxT set to 3.00D-01
 The second derivative matrix:
                          R1        R2        R3        R4        A1
           R1           0.35576
           R2           0.00763   0.35576
           R3           0.00763   0.00763   0.35576
           R4           0.00763   0.00763   0.00763   0.35576
           A1          -0.00000  -0.00000  -0.00000  -0.00000   0.16000
           A2           0.00000   0.00000   0.00000   0.00000  -0.00000
           A3           0.00000   0.00000   0.00000   0.00000  -0.00000
           A4           0.00000   0.00000   0.00000   0.00000  -0.00000
           A5          -0.00000  -0.00000  -0.00000  -0.00000   0.00000
           A6          -0.00000  -0.00000  -0.00000  -0.00000   0.00000
           D1           0.00000   0.00000   0.00000   0.00000  -0.00000
           D2          -0.00000  -0.00000  -0.00000  -0.00000   0.00000
           D3          -0.00000  -0.00000  -0.00000  -0.00000   0.00000
           D4           0.00000   0.00000   0.00000   0.00000  -0.00000
                          A2        A3        A4        A5        A6
           A2           0.16000
           A3           0.00000   0.16000
           A4           0.00000   0.00000   0.16000
           A5          -0.00000  -0.00000  -0.00000   0.16000
           A6          -0.00000  -0.00000  -0.00000   0.00000   0.16000
           D1           0.00000   0.00000   0.00000  -0.00000  -0.00000
           D2          -0.00000  -0.00000  -0.00000   0.00000   0.00000
           D3          -0.00000  -0.00000  -0.00000   0.00000   0.00000
           D4           0.00000   0.00000   0.00000  -0.00000  -0.00000
                          D1        D2        D3        D4
           D1           0.00235
           D2          -0.00000   0.00235
           D3          -0.00000   0.00000   0.00235
           D4           0.00000  -0.00000  -0.00000   0.00235
 Use linear search instead of GDIIS.
     Eigenvalues ---    0.05086   0.05718   0.08643   0.16000   0.16000
     Eigenvalues ---    0.34813   0.34813   0.34813   0.378651000.00000
     Eigenvalues --- 1000.000001000.000001000.000001000.00000
 RFO step:  Lambda= 0.00000000D+00 EMin= 5.08565158D-02
 Quartic linear search produced a step of -0.07798.
 Iteration  1 RMS(Cart)=  0.00067436 RMS(Int)=  0.00000000
 Iteration  2 RMS(Cart)=  0.00000000 RMS(Int)=  0.00000000
 ClnCor:  largest displacement from symmetrization is 4.80D-15 for atom     5.
 Variable       Old X    -DE/DX   Delta X   Delta X   Delta X     New X
                                 (Linear)    (Quad)   (Total)
    R1        2.04362   0.00049   0.00126   0.00000   0.00126   2.04488
    R2        2.04362   0.00049   0.00126  -0.00000   0.00126   2.04488
    R3        2.04362   0.00049   0.00126  -0.00000   0.00126   2.04488
    R4        2.04362   0.00049   0.00126   0.00000   0.00126   2.04488
    A1        1.91063  -0.00000  -0.00000  -0.00000   0.00000   1.91063
    A2        1.91063   0.00000   0.00000   0.00000   0.00000   1.91063
    A3        1.91063   0.00000   0.00000  -0.00000   0.00000   1.91063
    A4        1.91063   0.00000   0.00000   0.00000   0.00000   1.91063
    A5        1.91063   0.00000   0.00000   0.00000   0.00000   1.91063
    A6        1.91063  -0.00000  -0.00000  -0.00000  -0.00000   1.91063
    D1       -2.09440  -0.00000   0.00000  -0.00000   0.00000  -2.09440
    D2        2.09440  -0.00000  -0.00000  -0.00000   0.00000   2.09440
    D3       -2.09440   0.00000   0.00000   0.00000   0.00000  -2.09440
    D4        2.09440   0.00000   0.00000   0.00000   0.00000   2.09440
         Item               Value     Threshold  Converged?
 Maximum Force            0.000488     0.000450     NO 
 RMS     Force            0.000261     0.000300     YES
 Maximum Displacement     0.001262     0.001800     YES
 RMS     Displacement     0.000674     0.001200     YES
 Predicted change in Energy=-1.257399D-06
 GradGradGradGradGradGradGradGradGradGradGradGradGradGradGradGradGradGrad

 Leave Link  103 at Sat Aug 17 14:37:15 2024, MaxMem=   13107200 cpu:       0.0
 (Enter /programs/64bit/g09/g09-gfortran/bin/l202.exe)
                          Input orientation:                          
 ---------------------------------------------------------------------
 Center     Atomic      Atomic             Coordinates (Angstroms)
 Number     Number       Type             X           Y           Z
 ---------------------------------------------------------------------
      1          6           0        0.000000   -0.000000   -0.000000
      2          1           0        0.000000    0.000000    1.082106
      3          1           0        1.020219   -0.000000   -0.360702
      4          1           0       -0.510110   -0.883536   -0.360702
      5          1           0       -0.510110    0.883536   -0.360702
 ---------------------------------------------------------------------
                    Distance matrix (angstroms):
                    1          2          3          4          5
     1  C    0.000000
     2  H    1.082106   0.000000
     3  H    1.082106   1.767072   0.000000
     4  H    1.082106   1.767072   1.767072   0.000000
     5  H    1.082106   1.767072   1.767072   1.767072   0.000000
 Stoichiometry    CH4
 Framework group  TD[O(C),4C3(H)]
 Deg. of freedom     1
 Prev. full point group           TD      NOp  24
 Prev. largest Abelian subgroup   D2      NOp   4
       concise Abelian subgroup   D2      NOp   4
                   Standard orientation:
 ---------------------------------------------------------------------
 Center     Atomic                     Coordinates (Angstroms)
 Number     Number                        X           Y           Z
 ---------------------------------------------------------------------
      1          6                    0.000000    0.000000    0.000000
      2          1                    0.251918    1.034159    0.194951
      3          1                   -0.259937   -0.489325    0.929488
      4          1                   -0.841629   -0.044463   -0.678702
      5          1                    0.849648   -0.500371   -0.445737
 ---------------------------------------------------------------------
 TstSym:  Max error for IOp=  3 IAt=    4 Err= 2.04D+00
 TstSym:  IOp= 25 I=    6 IP=    4 Err= 2.04D+00
  CI=  0.000000000000D+00  0.000000000000D+00  0.000000000000D+00
   T=  1.590448777081D+00 -8.402368603416D-02  1.282561091870D+00
 CIP= -1.590448777081D+00 -8.402368603416D-02 -1.282561091870D+00
 Unable to use previous symmetry information.  Redetermining point group.
 No symmetry information on checkpoint file.  Reassigning symmetry.
 Symm:  InNGrp=TD   InAxis=0.
 Stoichiometry    CH4
 Framework group  TD[O(C),4C3(H)]
 Deg. of freedom     1
 Full point group                 TD      NOp  24
 Largest Abelian subgroup         D2      NOp   4
 Largest concise Abelian subgroup D2      NOp   4
                         Standard orientation:                         
 ---------------------------------------------------------------------
 Center     Atomic      Atomic             Coordinates (Angstroms)
 Number     Number       Type             X           Y           Z
 ---------------------------------------------------------------------
      1          6           0        0.000000    0.000000    0.000000
      2          1           0        0.624754    0.624754    0.624754
      3          1           0       -0.624754   -0.624754    0.624754
      4          1           0       -0.624754    0.624754   -0.624754
      5          1           0        0.624754   -0.624754   -0.624754
 ---------------------------------------------------------------------
 Rotational constants (GHZ):    160.5919378    160.5919378    160.5919378
 Leave Link  202 at Sat Aug 17 14:37:15 2024, MaxMem=   13107200 cpu:       0.0
 (Enter /programs/64bit/g09/g09-gfortran/bin/l301.exe)
 Standard basis: 6-31G (6D, 7F)
 Ernie: Thresh=  0.10000D-02 Tol=  0.10000D-05 Strict=F.
 There are     5 symmetry adapted basis functions of A   symmetry.
 There are     4 symmetry adapted basis functions of B1  symmetry.
 There are     4 symmetry adapted basis functions of B2  symmetry.
 There are     4 symmetry adapted basis functions of B3  symmetry.
 Integral buffers will be    131072 words long.
 Raffenetti 1 integral format.
 Two-electron integral symmetry is turned on.
    17 basis functions,    38 primitive gaussians,    17 cartesian basis functions
     5 alpha electrons        5 beta electrons
       nuclear repulsion energy        13.5334012567 Hartrees.
 IExCor=    0 DFT=F Ex=HF Corr=None ExCW=0 ScaHFX=  1.000000
 ScaDFX=  1.000000  1.000000  1.000000  1.000000 ScalE2=  1.000000  1.000000
 IRadAn=      0 IRanWt=     -1 IRanGd=            0 ICorTp=0
 NAtoms=    5 NActive=    5 NUniq=    2 SFac= 3.00D+00 NAtFMM=   80 NAOKFM=F Big=F
 Leave Link  301 at Sat Aug 17 14:37:16 2024, MaxMem=   13107200 cpu:       0.1
 (Enter /programs/64bit/g09/g09-gfortran/bin/l302.exe)
 NPDir=0 NMtPBC=     1 NCelOv=     1 NCel=       1 NClECP=     1 NCelD=      1
         NCelK=      1 NCelE2=     1 NClLst=     1 CellRange=     0.0.
 One-electron integrals computed using PRISM.
 One-electron integral symmetry used in STVInt
 NBasis=    17 RedAO= T  NBF=     5     4     4     4
 NBsUse=    17 1.00D-06 NBFU=     5     4     4     4
 Leave Link  302 at Sat Aug 17 14:37:16 2024, MaxMem=   13107200 cpu:       0.1
 (Enter /programs/64bit/g09/g09-gfortran/bin/l303.exe)
 DipDrv:  MaxL=1.
 Leave Link  303 at Sat Aug 17 14:37:16 2024, MaxMem=   13107200 cpu:       0.0
 (Enter /programs/64bit/g09/g09-gfortran/bin/l401.exe)
 Initial guess read from the read-write file.
 B after Tr=     0.000000    0.000000    0.000000
         Rot=    1.000000    0.000000    0.000000    0.000000 Ang=   0.00 deg.
 Guess basis will be translated and rotated to current coordinates.
 Initial guess orbital symmetries:
       Occupied  (A1) (A1) (T2) (T2) (T2)
       Virtual   (A1) (T2) (T2) (T2) (T2) (T2) (T2) (T2) (T2) (T2)
                 (A1) (A1)
 The electronic state of the initial guess is 1-A1.
 Leave Link  401 at Sat Aug 17 14:37:17 2024, MaxMem=   13107200 cpu:       0.1
 (Enter /programs/64bit/g09/g09-gfortran/bin/l502.exe)
 Closed shell SCF:
 Requested convergence on RMS density matrix=1.00D-08 within 128 cycles.
 Requested convergence on MAX density matrix=1.00D-06.
 Requested convergence on             energy=1.00D-06.
 No special actions if energy rises.
 Using DIIS extrapolation, IDIIS=  1040.
 Integral symmetry usage will be decided dynamically.
 Keep R1 ints in memory in canonical form, NReq=831858.
 IEnd=       20063 IEndB=       20063 NGot=    13107200 MDV=    13092431
 LenX=    13092431 LenY=    13091549
 Symmetry not used in FoFDir.
 MinBra= 0 MaxBra= 1 Meth= 1.
 IRaf=       0 NMat=   1 IRICut=       1 DoRegI=T DoRafI=F ISym2E= 0 JSym2E=0.

 Cycle   1  Pass 1  IDiag  1:
 E= -40.1805538584295    
 DIIS: error= 1.07D-04 at cycle   1 NSaved=   1.
 NSaved= 1 IEnMin= 1 EnMin= -40.1805538584295     IErMin= 1 ErrMin= 1.07D-04
 ErrMax= 1.07D-04 EMaxC= 1.00D-01 BMatC= 2.47D-07 BMatP= 2.47D-07
 IDIUse=3 WtCom= 9.99D-01 WtEn= 1.07D-03
 Coeff-Com:  0.100D+01
 Coeff-En:   0.100D+01
 Coeff:      0.100D+01
 Gap=     0.801 Goal=   None    Shift=    0.000
 RMSDP=3.18D-05 MaxDP=1.54D-04              OVMax= 1.98D-04

 Cycle   2  Pass 1  IDiag  1:
 E= -40.1805541381869     Delta-E=       -0.000000279757 Rises=F Damp=F
 DIIS: error= 3.72D-05 at cycle   2 NSaved=   2.
 NSaved= 2 IEnMin= 2 EnMin= -40.1805541381869     IErMin= 2 ErrMin= 3.72D-05
 ErrMax= 3.72D-05 EMaxC= 1.00D-01 BMatC= 3.28D-08 BMatP= 2.47D-07
 IDIUse=1 WtCom= 1.00D+00 WtEn= 0.00D+00
 Coeff-Com:  0.207D+00 0.793D+00
 Coeff:      0.207D+00 0.793D+00
 Gap=     0.801 Goal=   None    Shift=    0.000
 RMSDP=7.68D-06 MaxDP=4.71D-05 DE=-2.80D-07 OVMax= 4.60D-05

 Cycle   3  Pass 1  IDiag  1:
 E= -40.1805541704736     Delta-E=       -0.000000032287 Rises=F Damp=F
 DIIS: error= 6.65D-06 at cycle   3 NSaved=   3.
 NSaved= 3 IEnMin= 3 EnMin= -40.1805541704736     IErMin= 3 ErrMin= 6.65D-06
 ErrMax= 6.65D-06 EMaxC= 1.00D-01 BMatC= 7.84D-10 BMatP= 3.28D-08
 IDIUse=1 WtCom= 1.00D+00 WtEn= 0.00D+00
 Coeff-Com: -0.619D-01-0.240D-01 0.109D+01
 Coeff:     -0.619D-01-0.240D-01 0.109D+01
 Gap=     0.801 Goal=   None    Shift=    0.000
 RMSDP=1.94D-06 MaxDP=1.02D-05 DE=-3.23D-08 OVMax= 1.00D-05

 Cycle   4  Pass 1  IDiag  1:
 E= -40.1805541715758     Delta-E=       -0.000000001102 Rises=F Damp=F
 DIIS: error= 3.98D-07 at cycle   4 NSaved=   4.
 NSaved= 4 IEnMin= 4 EnMin= -40.1805541715758     IErMin= 4 ErrMin= 3.98D-07
 ErrMax= 3.98D-07 EMaxC= 1.00D-01 BMatC= 4.90D-12 BMatP= 7.84D-10
 IDIUse=1 WtCom= 1.00D+00 WtEn= 0.00D+00
 Coeff-Com:  0.113D-01 0.647D-02-0.238D+00 0.122D+01
 Coeff:      0.113D-01 0.647D-02-0.238D+00 0.122D+01
 Gap=     0.801 Goal=   None    Shift=    0.000
 RMSDP=4.23D-07 MaxDP=1.35D-06 DE=-1.10D-09 OVMax= 1.39D-06

 Cycle   5  Pass 1  IDiag  1:
 E= -40.1805541715872     Delta-E=       -0.000000000011 Rises=F Damp=F
 DIIS: error= 5.87D-08 at cycle   5 NSaved=   5.
 NSaved= 5 IEnMin= 5 EnMin= -40.1805541715872     IErMin= 5 ErrMin= 5.87D-08
 ErrMax= 5.87D-08 EMaxC= 1.00D-01 BMatC= 9.13D-14 BMatP= 4.90D-12
 IDIUse=1 WtCom= 1.00D+00 WtEn= 0.00D+00
 Coeff-Com: -0.154D-02-0.529D-03 0.328D-01-0.268D+00 0.124D+01
 Coeff:     -0.154D-02-0.529D-03 0.328D-01-0.268D+00 0.124D+01
 Gap=     0.801 Goal=   None    Shift=    0.000
 RMSDP=6.78D-08 MaxDP=2.15D-07 DE=-1.14D-11 OVMax= 2.10D-07

 Cycle   6  Pass 1  IDiag  1:
 E= -40.1805541715875     Delta-E=       -0.000000000000 Rises=F Damp=F
 DIIS: error= 1.17D-08 at cycle   6 NSaved=   6.
 NSaved= 6 IEnMin= 6 EnMin= -40.1805541715875     IErMin= 6 ErrMin= 1.17D-08
 ErrMax= 1.17D-08 EMaxC= 1.00D-01 BMatC= 8.25D-16 BMatP= 9.13D-14
 IDIUse=1 WtCom= 1.00D+00 WtEn= 0.00D+00
 Coeff-Com:  0.443D-03 0.210D-03-0.969D-02 0.821D-01-0.409D+00 0.134D+01
 Coeff:      0.443D-03 0.210D-03-0.969D-02 0.821D-01-0.409D+00 0.134D+01
 Gap=     0.801 Goal=   None    Shift=    0.000
 RMSDP=2.99D-09 MaxDP=2.22D-08 DE=-2.42D-13 OVMax= 1.87D-08

 SCF Done:  E(RHF) =  -40.1805541716     A.U. after    6 cycles
             Convg  =    0.2995D-08             -V/T =  1.9982
 KE= 4.025422374173D+01 PE=-1.201063035784D+02 EE= 2.613812440840D+01
 Leave Link  502 at Sat Aug 17 14:37:17 2024, MaxMem=   13107200 cpu:       0.1
 (Enter /programs/64bit/g09/g09-gfortran/bin/l701.exe)
 Compute integral first derivatives.
 ... and contract with generalized density number  0.
 Leave Link  701 at Sat Aug 17 14:37:18 2024, MaxMem=   13107200 cpu:       0.1
 (Enter /programs/64bit/g09/g09-gfortran/bin/l702.exe)
 L702 exits ... SP integral derivatives will be done elsewhere.
 Leave Link  702 at Sat Aug 17 14:37:18 2024, MaxMem=   13107200 cpu:       0.0
 (Enter /programs/64bit/g09/g09-gfortran/bin/l703.exe)
 Compute integral first derivatives, UseDBF=F ICtDFT=           0.
 Integral derivatives from FoFDir, PRISM(SPDF).
 Calling FoFJK, ICntrl=      2127 FMM=F ISym2X=1 I1Cent= 0 IOpClX= 0 NMat=1 NMatS=1 NMatT=0.
 FoFCou: FMM=F IPFlag=           0 FMFlag=      100000 FMFlg1=         800
         NFxFlg=           0 DoJE=F BraDBF=F KetDBF=F FulRan=T
         Omega=  0.000000  0.000000  1.000000  0.000000  0.000000 ICntrl=    2127 IOpCl=  0
         NMat0=    1 NMatS0=    1 NMatT0=    0 NMatD0=    1 NMtDS0=    0 NMtDT0=    0
         I1Cent=           0 NGrid=           0.
 Petite list used in FoFCou.
 Leave Link  703 at Sat Aug 17 14:37:18 2024, MaxMem=   13107200 cpu:       0.1
 (Enter /programs/64bit/g09/g09-gfortran/bin/l716.exe)
 Dipole        = 2.22044605D-16 2.22044605D-16 2.22044605D-16
 ***** Axes restored to original set *****
 -------------------------------------------------------------------
 Center     Atomic                   Forces (Hartrees/Bohr)
 Number     Number              X              Y              Z
 -------------------------------------------------------------------
      1        6           0.000000000    0.000000000   -0.000000000
      2        1          -0.000000000    0.000000000   -0.000000027
      3        1          -0.000000026    0.000000000    0.000000009
      4        1           0.000000013    0.000000022    0.000000009
      5        1           0.000000013   -0.000000022    0.000000009
 -------------------------------------------------------------------
 Cartesian Forces:  Max     0.000000027 RMS     0.000000014
 Leave Link  716 at Sat Aug 17 14:37:18 2024, MaxMem=   13107200 cpu:       0.0
 (Enter /programs/64bit/g09/g09-gfortran/bin/l103.exe)

 GradGradGradGradGradGradGradGradGradGradGradGradGradGradGradGradGradGrad
 Berny optimization.
 Using GEDIIS/GDIIS optimizer.
 Internal  Forces:  Max     0.000000027 RMS     0.000000015
 Search for a local minimum.
 Step number   3 out of a maximum of   24
 All quantities printed in internal units (Hartrees-Bohrs-Radians)
 RMS Force = .14505D-07 SwitMx=.10000D-02 MixMth= 2
 Mixed Optimization -- En-DIIS/RFO-DIIS
 Swaping is turned off.
 Update second derivatives using D2CorX and points    1    2    3
 DE= -1.23D-06 DEPred=-1.26D-06 R= 9.79D-01
 SS=  1.41D+00  RLast= 2.52D-03 DXNew= 5.0454D-01 7.5697D-03
 Trust test= 9.79D-01 RLast= 2.52D-03 DXMaxT set to 3.00D-01
 The second derivative matrix:
                          R1        R2        R3        R4        A1
           R1           0.35781
           R2           0.00968   0.35781
           R3           0.00968   0.00968   0.35781
           R4           0.00968   0.00968   0.00968   0.35781
           A1           0.00000   0.00000   0.00000   0.00000   0.16000
           A2          -0.00000  -0.00000  -0.00000  -0.00000  -0.00000
           A3          -0.00000  -0.00000  -0.00000  -0.00000  -0.00000
           A4          -0.00000  -0.00000  -0.00000  -0.00000   0.00000
           A5          -0.00000  -0.00000  -0.00000  -0.00000  -0.00000
           A6           0.00000   0.00000   0.00000   0.00000   0.00000
           D1           0.00000   0.00000   0.00000   0.00000   0.00000
           D2          -0.00000  -0.00000  -0.00000  -0.00000  -0.00000
           D3          -0.00000  -0.00000  -0.00000  -0.00000  -0.00000
           D4           0.00000   0.00000   0.00000   0.00000   0.00000
                          A2        A3        A4        A5        A6
           A2           0.16000
           A3           0.00000   0.16000
           A4          -0.00000  -0.00000   0.16000
           A5           0.00000   0.00000  -0.00000   0.16000
           A6          -0.00000  -0.00000   0.00000  -0.00000   0.16000
           D1          -0.00000  -0.00000   0.00000  -0.00000   0.00000
           D2           0.00000   0.00000  -0.00000   0.00000  -0.00000
           D3           0.00000   0.00000  -0.00000   0.00000  -0.00000
           D4          -0.00000  -0.00000   0.00000  -0.00000   0.00000
                          D1        D2        D3        D4
           D1           0.00235
           D2          -0.00000   0.00235
           D3          -0.00000   0.00000   0.00235
           D4           0.00000  -0.00000  -0.00000   0.00235
     Eigenvalues ---    0.05086   0.05718   0.08643   0.16000   0.16000
     Eigenvalues ---    0.34813   0.34813   0.34813   0.386841000.00000
     Eigenvalues --- 1000.000001000.000001000.000001000.00000
 En-DIIS/RFO-DIIS IScMMF=        0 using points:     3    2
 RFO step:  Lambda= 0.00000000D+00.
 Iteration  1 RMS(Cart)=  0.00000004 RMS(Int)=  0.00000000
 ClnCor:  largest displacement from symmetrization is 1.39D-14 for atom     5.
 Variable       Old X    -DE/DX   Delta X   Delta X   Delta X     New X
                                  (DIIS)     (GDIIS)  (Total)
    R1        2.04488  -0.00000   0.00000  -0.00000  -0.00000   2.04488
    R2        2.04488  -0.00000   0.00000  -0.00000  -0.00000   2.04488
    R3        2.04488  -0.00000   0.00000  -0.00000  -0.00000   2.04488
    R4        2.04488  -0.00000   0.00000  -0.00000  -0.00000   2.04488
    A1        1.91063  -0.00000   0.00000   0.00000   0.00000   1.91063
    A2        1.91063   0.00000   0.00000   0.00000   0.00000   1.91063
    A3        1.91063   0.00000   0.00000   0.00000  -0.00000   1.91063
    A4        1.91063   0.00000   0.00000   0.00000   0.00000   1.91063
    A5        1.91063   0.00000   0.00000   0.00000  -0.00000   1.91063
    A6        1.91063  -0.00000   0.00000  -0.00000   0.00000   1.91063
    D1       -2.09440  -0.00000   0.00000  -0.00000  -0.00000  -2.09440
    D2        2.09440   0.00000   0.00000   0.00000   0.00000   2.09440
    D3       -2.09440   0.00000   0.00000   0.00000   0.00000  -2.09440
    D4        2.09440  -0.00000   0.00000  -0.00000   0.00000   2.09440
         Item               Value     Threshold  Converged?
 Maximum Force            0.000000     0.000450     YES
 RMS     Force            0.000000     0.000300     YES
 Maximum Displacement     0.000000     0.001800     YES
 RMS     Displacement     0.000000     0.001200     YES
 Predicted change in Energy=-3.806962D-15
 Optimization completed.
    -- Stationary point found.
                           ----------------------------
                           !   Optimized Parameters   !
                           ! (Angstroms and Degrees)  !
 --------------------------                            --------------------------
 ! Name  Definition              Value          Derivative Info.                !
 --------------------------------------------------------------------------------
 ! R1    R(1,2)                  1.0821         -DE/DX =    0.0                 !
 ! R2    R(1,3)                  1.0821         -DE/DX =    0.0                 !
 ! R3    R(1,4)                  1.0821         -DE/DX =    0.0                 !
 ! R4    R(1,5)                  1.0821         -DE/DX =    0.0                 !
 ! A1    A(2,1,3)              109.4712         -DE/DX =    0.0                 !
 ! A2    A(2,1,4)              109.4712         -DE/DX =    0.0                 !
 ! A3    A(2,1,5)              109.4712         -DE/DX =    0.0                 !
 ! A4    A(3,1,4)              109.4712         -DE/DX =    0.0                 !
 ! A5    A(3,1,5)              109.4712         -DE/DX =    0.0                 !
 ! A6    A(4,1,5)              109.4712         -DE/DX =    0.0                 !
 ! D1    D(2,1,4,3)           -120.0            -DE/DX =    0.0                 !
 ! D2    D(2,1,5,3)            120.0            -DE/DX =    0.0                 !
 ! D3    D(2,1,5,4)           -120.0            -DE/DX =    0.0                 !
 ! D4    D(3,1,5,4)            120.0            -DE/DX =    0.0                 !
 --------------------------------------------------------------------------------
 GradGradGradGradGradGradGradGradGradGradGradGradGradGradGradGradGradGrad

 Largest change from initial coordinates is atom    4       0.008 Angstoms.
 Leave Link  103 at Sat Aug 17 14:37:18 2024, MaxMem=   13107200 cpu:       0.0
 (Enter /programs/64bit/g09/g09-gfortran/bin/l202.exe)
                          Input orientation:                          
 ---------------------------------------------------------------------
 Center     Atomic      Atomic             Coordinates (Angstroms)
[...]
      X                                                                   X                                                          
      X                                                                   X                                                          
      X                                                                   X                                                          
      X                                                                   X                                                          
      X                                                                   X                                                          
      X                                                                   X                                                          
      X                                                                                                                              
      X                                                                                                                              
      X                                                                                                                              
      X                                                                                                                              
      X                                                                                                                              
      X                                                                                                                              
      X                                                                                                                              
      X                                                                                                                              
      X                                                                                                                              
 
 
                                     methane with imposed symmetry Td and hf/6-31
 G basis function
                                                            Raman Spectrum
 
      3   3                                                        1      1                                                          
      2   1                                                        7      5                                                          
      9   8                                                        0      1                                                          
      6   2                                                        9      7                                                          
 
      X   X                                                        X      X                                                          
      X   X                                                        X                                                                 
      X   X                                                        X                                                                 
      X   X                                                        X                                                                 
      X   X                                                        X                                                                 
      X   X                                                        X                                                                 
      X   X                                                        X                                                                 
      X   X                                                        X                                                                 
      X   X                                                                                                                          
      X   X                                                                                                                          
      X   X                                                                                                                          
      X   X                                                                                                                          
      X   X                                                                                                                          
      X   X                                                                                                                          
      X   X                                                                                                                          
      X                                                                                                                              
      X                                                                                                                              
      X                                                                                                                              
      X                                                                                                                              
      X                                                                                                                              
 
 ***** Axes restored to original set *****
 -------------------------------------------------------------------
 Center     Atomic                   Forces (Hartrees/Bohr)
 Number     Number              X              Y              Z
 -------------------------------------------------------------------
      1        6           0.000000000    0.000000000    0.000000000
      2        1           0.000000000    0.000000000   -0.000000027
      3        1          -0.000000026    0.000000000    0.000000009
      4        1           0.000000013    0.000000022    0.000000009
      5        1           0.000000013   -0.000000022    0.000000009
 -------------------------------------------------------------------
 Cartesian Forces:  Max     0.000000027 RMS     0.000000014
 Force constants in Cartesian coordinates: 
                1             2             3             4             5 
      1  0.615627D+00
      2  0.000000D+00  0.615627D+00
      3  0.000000D+00  0.000000D+00  0.615627D+00
      4 -0.579317D-01  0.000000D+00  0.000000D+00  0.554086D-01
      5  0.000000D+00 -0.579317D-01  0.000000D+00  0.000000D+00  0.554086D-01
      6  0.000000D+00  0.000000D+00 -0.345857D+00  0.000000D+00  0.000000D+00
      7 -0.313865D+00  0.000000D+00  0.904861D-01  0.195867D-02  0.000000D+00
      8  0.000000D+00 -0.579317D-01  0.000000D+00  0.000000D+00 -0.276649D-03
      9  0.904861D-01  0.000000D+00 -0.899234D-01  0.385851D-01  0.000000D+00
     10 -0.121915D+00 -0.110822D+00 -0.452431D-01  0.282182D-03  0.967923D-03
     11 -0.110822D+00 -0.249882D+00 -0.783633D-01  0.967923D-03  0.139984D-02
     12 -0.452431D-01 -0.783633D-01 -0.899234D-01 -0.192926D-01 -0.334157D-01
     13 -0.121915D+00  0.110822D+00 -0.452431D-01  0.282182D-03 -0.967923D-03
     14  0.110822D+00 -0.249882D+00  0.783633D-01 -0.967923D-03  0.139984D-02
     15 -0.452431D-01  0.783633D-01 -0.899234D-01 -0.192926D-01  0.334157D-01
                6             7             8             9            10 
      6  0.379295D+00
      7 -0.151971D-02  0.343307D+00
      8  0.000000D+00  0.000000D+00  0.554086D-01
      9 -0.111459D-01 -0.101788D+00  0.000000D+00  0.913960D-01
     10  0.759853D-03 -0.157004D-01 -0.311820D-01 -0.136419D-01  0.127383D+00
     11  0.131610D-02  0.156348D-02  0.139984D-02  0.473866D-03  0.124664D+00
     12 -0.111459D-01  0.641055D-02  0.120511D-01  0.483666D-02  0.508938D-01
     13  0.759853D-03 -0.157004D-01  0.311820D-01 -0.136419D-01  0.994997D-02
     14 -0.131610D-02 -0.156348D-02  0.139984D-02 -0.473866D-03  0.163727D-01
     15 -0.111459D-01  0.641055D-02 -0.120511D-01  0.483666D-02  0.723131D-02
               11            12            13            14            15 
     11  0.271333D+00
     12  0.881506D-01  0.913960D-01
     13 -0.163727D-01  0.723131D-02  0.127383D+00
     14 -0.242505D-01  0.115773D-01 -0.124664D+00  0.271333D+00
     15 -0.115773D-01  0.483666D-02  0.508938D-01 -0.881506D-01  0.913960D-01
 Force constants in internal coordinates: 
                1             2             3             4             5 
      1  0.379295D+00
      2  0.228252D-02  0.379295D+00
      3  0.228252D-02  0.228252D-02  0.379295D+00
      4  0.228252D-02  0.228252D-02  0.228252D-02  0.379295D+00
      5  0.248347D-02  0.248347D-02 -0.155939D-02 -0.340755D-02  0.232657D-01
      6  0.389220D-02 -0.100444D-02  0.433164D-02 -0.721939D-02 -0.997531D-02
      7  0.760610D-02 -0.610447D-02 -0.675735D-02  0.525572D-02 -0.152879D-01
      8 -0.100444D-02  0.389220D-02  0.433164D-02 -0.721939D-02 -0.997531D-02
      9 -0.610447D-02  0.760610D-02 -0.675735D-02  0.525572D-02 -0.152879D-01
     10 -0.687286D-02 -0.687286D-02  0.641082D-02  0.733490D-02  0.272606D-01
     11 -0.481000D-02 -0.481000D-02 -0.339530D-02  0.130153D-01 -0.162774D-01
     12  0.396118D-02  0.396118D-02 -0.101859D-01  0.226353D-02  0.977085D-02
     13 -0.521596D-02  0.917714D-02 -0.509294D-02  0.113177D-02  0.488542D-02
     14 -0.917714D-02  0.521596D-02  0.509294D-02 -0.113177D-02 -0.488542D-02
                6             7             8             9            10 
      6  0.442170D-01
      7 -0.266679D-01  0.863683D-01
      8 -0.181790D-02  0.280155D-01  0.442170D-01
      9  0.280155D-01 -0.412892D-01 -0.266679D-01  0.863683D-01
     10 -0.337714D-01 -0.311388D-01 -0.337714D-01 -0.311388D-01  0.102560D+00
     11 -0.137468D-01  0.178985D-01 -0.137468D-01  0.178985D-01  0.797400D-02
     12 -0.113920D-01  0.888143D-02 -0.113920D-01  0.888143D-02 -0.474980D-02
     13 -0.171432D-01 -0.115968D-02  0.575121D-02  0.100411D-01 -0.237490D-02
     14 -0.575121D-02 -0.100411D-01  0.171432D-01  0.115968D-02  0.237490D-02
               11            12            13            14 
     11  0.367720D-01
     12  0.198545D-02  0.228443D-01
     13  0.992725D-03  0.114221D-01  0.231605D-01
     14 -0.992725D-03 -0.114221D-01  0.117383D-01  0.231605D-01
 Leave Link  716 at Sat Aug 17 14:37:23 2024, MaxMem=   13107200 cpu:       0.0
 (Enter /programs/64bit/g09/g09-gfortran/bin/l103.exe)

 GradGradGradGradGradGradGradGradGradGradGradGradGradGradGradGradGradGrad
 Berny optimization.
 Internal  Forces:  Max     0.000000027 RMS     0.000000014
 Search for a local minimum.
 Step number   1 out of a maximum of    2
 All quantities printed in internal units (Hartrees-Bohrs-Radians)
 Second derivative matrix not updated -- analytic derivatives used.
 The second derivative matrix:
                          R1        R2        R3        R4        A1
           R1           0.37929
           R2           0.00228   0.37929
           R3           0.00228   0.00228   0.37929
           R4           0.00228   0.00228   0.00228   0.37929
           A1           0.00248   0.00248  -0.00156  -0.00341   0.02327
           A2           0.00389  -0.00100   0.00433  -0.00722  -0.00998
           A3           0.00761  -0.00610  -0.00676   0.00526  -0.01529
           A4          -0.00100   0.00389   0.00433  -0.00722  -0.00998
           A5          -0.00610   0.00761  -0.00676   0.00526  -0.01529
           A6          -0.00687  -0.00687   0.00641   0.00733   0.02726
           D1          -0.00481  -0.00481  -0.00340   0.01302  -0.01628
           D2           0.00396   0.00396  -0.01019   0.00226   0.00977
           D3          -0.00522   0.00918  -0.00509   0.00113   0.00489
           D4          -0.00918   0.00522   0.00509  -0.00113  -0.00489
                          A2        A3        A4        A5        A6
           A2           0.04422
           A3          -0.02667   0.08637
           A4          -0.00182   0.02802   0.04422
           A5           0.02802  -0.04129  -0.02667   0.08637
           A6          -0.03377  -0.03114  -0.03377  -0.03114   0.10256
           D1          -0.01375   0.01790  -0.01375   0.01790   0.00797
           D2          -0.01139   0.00888  -0.01139   0.00888  -0.00475
           D3          -0.01714  -0.00116   0.00575   0.01004  -0.00237
           D4          -0.00575  -0.01004   0.01714   0.00116   0.00237
                          D1        D2        D3        D4
           D1           0.03677
           D2           0.00199   0.02284
           D3           0.00099   0.01142   0.02316
           D4          -0.00099  -0.01142   0.01174   0.02316
     Eigenvalues ---    0.04653   0.05253   0.08016   0.15438   0.15463
     Eigenvalues ---    0.37842   0.37844   0.37887   0.386141000.00000
     Eigenvalues --- 1000.000001000.000001000.000001000.00000
 Angle between quadratic step and forces=  90.00 degrees.
 Linear search not attempted -- first point.
 Iteration  1 RMS(Cart)=  0.00000004 RMS(Int)=  0.00000000
 ClnCor:  largest displacement from symmetrization is 1.80D-14 for atom     4.
 Variable       Old X    -DE/DX   Delta X   Delta X   Delta X     New X
                                 (Linear)    (Quad)   (Total)
    R1        2.04488  -0.00000   0.00000  -0.00000  -0.00000   2.04488
    R2        2.04488  -0.00000   0.00000  -0.00000  -0.00000   2.04488
    R3        2.04488  -0.00000   0.00000  -0.00000  -0.00000   2.04488
    R4        2.04488  -0.00000   0.00000  -0.00000  -0.00000   2.04488
    A1        1.91063  -0.00000   0.00000  -0.00000  -0.00000   1.91063
    A2        1.91063   0.00000   0.00000   0.00000   0.00000   1.91063
    A3        1.91063   0.00000   0.00000   0.00000  -0.00000   1.91063
    A4        1.91063   0.00000   0.00000   0.00000  -0.00000   1.91063
    A5        1.91063   0.00000   0.00000   0.00000   0.00000   1.91063
    A6        1.91063  -0.00000   0.00000  -0.00000  -0.00000   1.91063
    D1       -2.09440  -0.00000   0.00000  -0.00000   0.00000  -2.09440
    D2        2.09440  -0.00000   0.00000   0.00000   0.00000   2.09440
    D3       -2.09440   0.00000   0.00000   0.00000   0.00000  -2.09440
    D4        2.09440   0.00000   0.00000   0.00000  -0.00000   2.09440
         Item               Value     Threshold  Converged?
 Maximum Force            0.000000     0.000450     YES
 RMS     Force            0.000000     0.000300     YES
 Maximum Displacement     0.000000     0.001800     YES
 RMS     Displacement     0.000000     0.001200     YES
 Predicted change in Energy=-3.797215D-15
 Optimization completed.
    -- Stationary point found.
                           ----------------------------
                           !   Optimized Parameters   !
                           ! (Angstroms and Degrees)  !
 --------------------------                            --------------------------
 ! Name  Definition              Value          Derivative Info.                !
 --------------------------------------------------------------------------------
 ! R1    R(1,2)                  1.0821         -DE/DX =    0.0                 !
 ! R2    R(1,3)                  1.0821         -DE/DX =    0.0                 !
 ! R3    R(1,4)                  1.0821         -DE/DX =    0.0                 !
 ! R4    R(1,5)                  1.0821         -DE/DX =    0.0                 !
 ! A1    A(2,1,3)              109.4712         -DE/DX =    0.0                 !
 ! A2    A(2,1,4)              109.4712         -DE/DX =    0.0                 !
 ! A3    A(2,1,5)              109.4712         -DE/DX =    0.0                 !
 ! A4    A(3,1,4)              109.4712         -DE/DX =    0.0                 !
 ! A5    A(3,1,5)              109.4712         -DE/DX =    0.0                 !
 ! A6    A(4,1,5)              109.4712         -DE/DX =    0.0                 !
 ! D1    D(2,1,4,3)           -120.0            -DE/DX =    0.0                 !
 ! D2    D(2,1,5,3)            120.0            -DE/DX =    0.0                 !
 ! D3    D(2,1,5,4)           -120.0            -DE/DX =    0.0                 !
 ! D4    D(3,1,5,4)            120.0            -DE/DX =    0.0                 !
 --------------------------------------------------------------------------------
 GradGradGradGradGradGradGradGradGradGradGradGradGradGradGradGradGradGrad

 Leave Link  103 at Sat Aug 17 14:37:23 2024, MaxMem=   13107200 cpu:       0.0
 (Enter /programs/64bit/g09/g09-gfortran/bin/l9999.exe)
 1\1\GINC-MOLMOD\Freq\RHF\6-31G\C1H4\OSPITE\17-Aug-2024\0\\#P Geom=AllC
 heck Guess=TCheck SCRF=Check GenChk RHF/6-31G Freq\\methane with impos
 ed symmetry Td and hf/6-31G basis function\\0,1\C,0.,0.,0.\H,0.,0.,1.0
 821059647\H,1.0202192875,0.,-0.3607019882\H,-0.5101096438,-0.883535820
 4,-0.3607019882\H,-0.5101096438,0.8835358204,-0.3607019882\\Version=EM
 64L-G09RevA.02\State=1-A1\HF=-40.1805542\RMSD=1.599e-10\RMSF=1.398e-08
 \ZeroPoint=0.0479325\Thermal=0.0507829\Dipole=0.,0.,0.\DipoleDeriv=-0.
 0005011,0.,0.,0.,-0.0005011,0.,0.,0.,-0.0005011,0.0876603,0.,0.,0.,0.0
 876603,0.,0.,0.,-0.1749448,-0.1457665,0.,0.0825288,0.,0.0876603,0.,0.0
 825288,0.,0.058482,0.0293036,-0.1010768,-0.0412644,-0.1010768,-0.08740
 98,-0.0714721,-0.0412644,-0.0714721,0.058482,0.0293036,0.1010768,-0.04
 12644,0.1010768,-0.0874098,0.0714721,-0.0412644,0.0714721,0.058482\Pol
 ar=11.9822538,0.,11.9822538,0.,0.,11.9822538\PolarDeriv=-3.8927814,0.,
 3.8927814,2.7526121,0.,0.,0.,3.8927814,0.,0.,2.7526121,0.,2.7526121,0.
 ,2.7526121,0.,0.,-5.5052242,0.682726,0.,-0.682726,2.52877,0.,0.,0.,-0.
 682726,0.,0.,2.52877,0.,0.1188643,0.,0.1188643,0.,0.,9.4387418,8.47770
 95,0.,-0.115509,-2.0343181,0.,0.7608634,0.,2.1565719,0.,0.,-1.4866035,
 0.,-1.2310162,0.,-0.6833017,3.0329442,0.,-1.3111723,-2.6338267,-2.7943
 094,-1.5472735,-1.6235322,-0.2371674,-0.3804317,-0.8266297,-2.6833139,
 -6.4152484,-0.2371674,-1.8973895,-0.658927,-0.8202303,-0.2371674,-1.09
 40876,-1.5164721,-2.6266067,-1.3111723,-2.6338267,2.7943094,-1.5472735
 ,-1.6235322,0.2371674,-0.3804317,0.8266297,-2.6833139,6.4152484,0.2371
 674,-1.8973895,0.658927,-0.8202303,0.2371674,-1.0940876,-1.5164721,2.6
 266067,-1.3111723\HyperPolar=24.6053973,0.,-24.6053973,0.,-17.3986433,
 0.,-17.3986433,0.,0.,34.7972865\PG=TD [O(C1),4C3(H1)]\NImag=0\\0.61562
 688,0.,0.61562688,0.,0.,0.61562688,-0.05793169,0.,0.,0.05540865,0.,-0.
 05793169,0.,0.,0.05540865,0.,0.,-0.34585678,0.,0.,0.37929459,-0.313865
 11,0.,0.09048613,0.00195867,0.,-0.00151971,0.34330726,0.,-0.05793169,0
 .,0.,-0.00027665,0.,0.,0.05540865,0.09048613,0.,-0.08992337,0.03858513
 ,0.,-0.01114593,-0.10178753,0.,0.09139598,-0.12191504,-0.11082242,-0.0
 4524306,0.00028218,0.00096792,0.00075985,-0.01570041,-0.03118199,-0.01
 364187,0.12738330,-0.11082242,-0.24988175,-0.07836329,0.00096792,0.001
 39984,0.00131610,0.00156348,0.00139984,0.00047387,0.12466376,0.2713326
 1,-0.04524306,-0.07836329,-0.08992337,-0.01929257,-0.03341571,-0.01114
 593,0.00641055,0.01205114,0.00483666,0.05089377,0.08815059,0.09139598,
 -0.12191504,0.11082242,-0.04524306,0.00028218,-0.00096792,0.00075985,-
 0.01570041,0.03118199,-0.01364187,0.00994997,-0.01637273,0.00723131,0.
 12738330,0.11082242,-0.24988175,0.07836329,-0.00096792,0.00139984,-0.0
 0131610,-0.00156348,0.00139984,-0.00047387,0.01637273,-0.02425054,0.01
 157727,-0.12466376,0.27133261,-0.04524306,0.07836329,-0.08992337,-0.01
 929257,0.03341571,-0.01114593,0.00641055,-0.01205114,0.00483666,0.0072
 3131,-0.01157727,0.00483666,0.05089377,-0.08815059,0.09139598\\0.,0.,0
 .,0.,0.,0.00000003,0.00000003,0.,0.,-0.00000001,-0.00000002,0.,-0.0000
 0001,0.00000002,0.\\\@



 IN THIS SHORT LIFE

 THAT ONLY LASTS AN HOUR

 HOW MUCH, HOW LITTLE, IS WITHIN OUR POWER....


 EMILY DICKINSON BOLTS OF MELODY NO. 521
 Job cpu time:  0 days  0 hours  0 minutes  2.2 seconds.
 File lengths (MBytes):  RWF=      5 Int=      0 D2E=      0 Chk=      1 Scr=      1
 Normal termination of Gaussian 09 at Sat Aug 17 14:37:23 2024.
