 Entering Gaussian System, Link 0=/programs/64bit/g09/g09-gfortran/bin/g09
 Input=ch4_cc-pVQZ.com
 Output=ch4_cc-pVQZ.log
 Initial command:
 /programs/64bit/g09/g09-gfortran/bin/l1.exe /home/ospite/Desktop/MMfP/Project6/CH4/g09/HF/Gau-5666.inp -scrdir=/home/ospite/Desktop/MMfP/Project6/CH4/g09/HF/
 Entering Link 1 = /programs/64bit/g09/g09-gfortran/bin/l1.exe PID=      5667.
  
 Copyright (c) 1988,1990,1992,1993,1995,1998,2003,2009, Gaussian, Inc.
                  All Rights Reserved.
  
 This is part of the Gaussian(R) 09 program.  It is based on
 the Gaussian(R) 03 system (copyright 2003, Gaussian, Inc.),
 the Gaussian(R) 98 system (copyright 1998, Gaussian, Inc.),
 the Gaussian(R) 94 system (copyright 1995, Gaussian, Inc.),
 the Gaussian 92(TM) system (copyright 1992, Gaussian, Inc.),
 the Gaussian 90(TM) system (copyright 1990, Gaussian, Inc.),
 the Gaussian 88(TM) system (copyright 1988, Gaussian, Inc.),
 the Gaussian 86(TM) system (copyright 1986, Carnegie Mellon
 University), and the Gaussian 82(TM) system (copyright 1983,
 Carnegie Mellon University). Gaussian is a federally registered
 trademark of Gaussian, Inc.
  
 This software contains proprietary and confidential information,
 including trade secrets, belonging to Gaussian, Inc.
  
 This software is provided under written license and may be
 used, copied, transmitted, or stored only in accord with that
 written license.
  
 The following legend is applicable only to US Government
 contracts under FAR:
  
                    RESTRICTED RIGHTS LEGEND
  
 Use, reproduction and disclosure by the US Government is
 subject to restrictions as set forth in subparagraphs (a)
 and (c) of the Commercial Computer Software - Restricted
 Rights clause in FAR 52.227-19.
  
 Gaussian, Inc.
 340 Quinnipiac St., Bldg. 40, Wallingford CT 06492
  
  
 ---------------------------------------------------------------
 Warning -- This program may not be used in any manner that
 competes with the business of Gaussian, Inc. or will provide
 assistance to any competitor of Gaussian, Inc.  The licensee
 of this program is prohibited from giving any competitor of
 Gaussian, Inc. access to this program.  By using this program,
 the user acknowledges that Gaussian, Inc. is engaged in the
 business of creating and licensing software in the field of
 computational chemistry and represents and warrants to the
 licensee that it is not a competitor of Gaussian, Inc. and that
 it will not use this program in any manner prohibited above.
 ---------------------------------------------------------------
  

 Cite this work as:
 Gaussian 09, Revision A.02,
 M. J. Frisch, G. W. Trucks, H. B. Schlegel, G. E. Scuseria, 
 M. A. Robb, J. R. Cheeseman, G. Scalmani, V. Barone, B. Mennucci, 
 G. A. Petersson, H. Nakatsuji, M. Caricato, X. Li, H. P. Hratchian, 
 A. F. Izmaylov, J. Bloino, G. Zheng, J. L. Sonnenberg, M. Hada, 
 M. Ehara, K. Toyota, R. Fukuda, J. Hasegawa, M. Ishida, T. Nakajima, 
 Y. Honda, O. Kitao, H. Nakai, T. Vreven, J. A. Montgomery, Jr., 
 J. E. Peralta, F. Ogliaro, M. Bearpark, J. J. Heyd, E. Brothers, 
 K. N. Kudin, V. N. Staroverov, R. Kobayashi, J. Normand, 
 K. Raghavachari, A. Rendell, J. C. Burant, S. S. Iyengar, J. Tomasi, 
 M. Cossi, N. Rega, J. M. Millam, M. Klene, J. E. Knox, J. B. Cross, 
 V. Bakken, C. Adamo, J. Jaramillo, R. Gomperts, R. E. Stratmann, 
 O. Yazyev, A. J. Austin, R. Cammi, C. Pomelli, J. W. Ochterski, 
 R. L. Martin, K. Morokuma, V. G. Zakrzewski, G. A. Voth, 
 P. Salvador, J. J. Dannenberg, S. Dapprich, A. D. Daniels, 
 O. Farkas, J. B. Foresman, J. V. Ortiz, J. Cioslowski, 
 and D. J. Fox, Gaussian, Inc., Wallingford CT, 2009.
 
 ******************************************
 Gaussian 09:  EM64L-G09RevA.02 11-Jun-2009
                18-Aug-2024 
 ******************************************
 %mem=100MB
 ---------------------------------------------------------------
 #p hf/cc-pVQZ opt freq symmetry=(follow,pg=Td) pop=full gfinput
 ---------------------------------------------------------------
 1/18=20,19=15,38=1/1,3;
 2/9=110,12=2,17=6,18=5,19=2314885530818462804,40=1/2;
 3/5=16,6=2,11=9,16=1,24=10,25=1,30=1,71=1/1,2,3;
 4//1;
 5/5=2,38=5/2;
 6/7=3,28=1/1;
 7//1,2,3,16;
 1/18=20,19=15/3(2);
 2/9=110,15=5,19=2314885530818462804/2;
 99//99;
 2/9=110,15=5,19=2314885530818462804/2;
 3/5=16,6=2,11=9,16=1,25=1,30=1,71=1/1,2,3;
 4/5=5,16=3/1;
 5/5=2,38=5/2;
 7//1,2,3,16;
 1/18=20,19=15/3(-5);
 2/9=110,15=5,19=2314885530818462804/2;
 6/7=3,19=2,28=1/1;
 99/9=1/99;
 Leave Link    1 at Sun Aug 18 13:00:15 2024, MaxMem=   13107200 cpu:       0.1
 (Enter /programs/64bit/g09/g09-gfortran/bin/l101.exe)
 ------------------------------------------------------
 methane with imposed symmetry Td and cc-pVQZ basis set
 ------------------------------------------------------
 Symbolic Z-matrix:
 Charge =  0 Multiplicity = 1
 C1
 H2                   1    d
 H3                   1    d        2    a
 H4                   1    d        2    a        3    t        0
 H5                   1    d        2    a        3    -t       0
       Variables:
  d                     1.09                     
  a                   109.471                    
  t                   120.                       
 
     3 tetrahedral angles replaced.
 NAtoms=      5 NQM=      5 NQMF=      0 NMic=      0 NMicF=      0 NTot=      5.
                    Isotopes and Nuclear Properties:
 (Nuclear quadrupole moments (NQMom) in fm**2, nuclear magnetic moments (NMagM)
  in nuclear magnetons)

  Atom         1           2           3           4           5
 IAtWgt=          12           1           1           1           1
 AtmWgt=  12.0000000   1.0078250   1.0078250   1.0078250   1.0078250
 NucSpn=           0           1           1           1           1
 AtZEff=   0.0000000   0.0000000   0.0000000   0.0000000   0.0000000
 NQMom=    0.0000000   0.0000000   0.0000000   0.0000000   0.0000000
 NMagM=    0.0000000   2.7928460   2.7928460   2.7928460   2.7928460
 Leave Link  101 at Sun Aug 18 13:00:15 2024, MaxMem=   13107200 cpu:       0.1
 (Enter /programs/64bit/g09/g09-gfortran/bin/l103.exe)

 GradGradGradGradGradGradGradGradGradGradGradGradGradGradGradGradGradGrad
 Berny optimization.
 Initialization pass.
                           ----------------------------
                           !    Initial Parameters    !
                           ! (Angstroms and Degrees)  !
 --------------------------                            --------------------------
 ! Name  Definition              Value          Derivative Info.                !
 --------------------------------------------------------------------------------
 ! R1    R(1,2)                  1.09           estimate D2E/DX2                !
 ! R2    R(1,3)                  1.09           estimate D2E/DX2                !
 ! R3    R(1,4)                  1.09           estimate D2E/DX2                !
 ! R4    R(1,5)                  1.09           estimate D2E/DX2                !
 ! A1    A(2,1,3)              109.4712         estimate D2E/DX2                !
 ! A2    A(2,1,4)              109.4712         estimate D2E/DX2                !
 ! A3    A(2,1,5)              109.4712         estimate D2E/DX2                !
 ! A4    A(3,1,4)              109.4712         estimate D2E/DX2                !
 ! A5    A(3,1,5)              109.4712         estimate D2E/DX2                !
 ! A6    A(4,1,5)              109.4712         estimate D2E/DX2                !
 ! D1    D(2,1,4,3)           -120.0            estimate D2E/DX2                !
 ! D2    D(2,1,5,3)            120.0            estimate D2E/DX2                !
 ! D3    D(2,1,5,4)           -120.0            estimate D2E/DX2                !
 ! D4    D(3,1,5,4)            120.0            estimate D2E/DX2                !
 --------------------------------------------------------------------------------
 Trust Radius=3.00D-01 FncErr=1.00D-07 GrdErr=1.00D-07
 Number of steps in this run=  24 maximum allowed number of steps= 100.
 GradGradGradGradGradGradGradGradGradGradGradGradGradGradGradGradGradGrad

 Leave Link  103 at Sun Aug 18 13:00:15 2024, MaxMem=   13107200 cpu:       0.0
 (Enter /programs/64bit/g09/g09-gfortran/bin/l202.exe)
                          Input orientation:                          
 ---------------------------------------------------------------------
 Center     Atomic      Atomic             Coordinates (Angstroms)
 Number     Number       Type             X           Y           Z
 ---------------------------------------------------------------------
      1          6           0        0.000000    0.000000    0.000000
      2          1           0        0.000000    0.000000    1.090000
      3          1           0        1.027662    0.000000   -0.363333
      4          1           0       -0.513831   -0.889981   -0.363333
      5          1           0       -0.513831    0.889981   -0.363333
 ---------------------------------------------------------------------
                    Distance matrix (angstroms):
                    1          2          3          4          5
     1  C    0.000000
     2  H    1.090000   0.000000
     3  H    1.090000   1.779963   0.000000
     4  H    1.090000   1.779963   1.779963   0.000000
     5  H    1.090000   1.779963   1.779963   1.779963   0.000000
 Symm:  InNGrp=TD   InAxis=0.
 Stoichiometry    CH4
 Framework group  TD[O(C),4C3(H)]
 Deg. of freedom     1
 Full point group                 TD      NOp  24
 Largest Abelian subgroup         D2      NOp   4
 Largest concise Abelian subgroup D2      NOp   4
                         Standard orientation:                         
 ---------------------------------------------------------------------
 Center     Atomic      Atomic             Coordinates (Angstroms)
 Number     Number       Type             X           Y           Z
 ---------------------------------------------------------------------
      1          6           0        0.000000    0.000000    0.000000
      2          1           0        0.629312    0.629312    0.629312
      3          1           0       -0.629312   -0.629312    0.629312
      4          1           0       -0.629312    0.629312   -0.629312
      5          1           0        0.629312   -0.629312   -0.629312
 ---------------------------------------------------------------------
 Rotational constants (GHZ):    158.2742720    158.2742720    158.2742720
 Leave Link  202 at Sun Aug 18 13:00:15 2024, MaxMem=   13107200 cpu:       0.0
 (Enter /programs/64bit/g09/g09-gfortran/bin/l301.exe)
 Standard basis: CC-pVQZ (5D, 7F)
 Ernie: Thresh=  0.10000D-02 Tol=  0.10000D-05 Strict=F.
 Ernie:  3 primitive shells out of 81 were deleted.
 AO basis set in the form of general basis input (Overlap normalization):
      1 0
 S   8 1.00       0.000000000000
      0.3398000000D+05  0.1468124114D-03
      0.5089000000D+04  0.1116460016D-02
      0.1157000000D+04  0.5890887108D-02
      0.3266000000D+03  0.2421725547D-01
      0.1061000000D+03  0.8317163879D-01
      0.3811000000D+02  0.2205684777D+00
      0.1475000000D+02  0.4287314969D+00
      0.6035000000D+01  0.3643614225D+00
 S   7 1.00       0.000000000000
      0.5089000000D+04 -0.1002265364D-04
      0.3266000000D+03 -0.4365894368D-03
      0.1061000000D+03 -0.1932312730D-02
      0.3811000000D+02 -0.2148394772D-01
      0.1475000000D+02 -0.9030916566D-01
      0.6035000000D+01 -0.4187915117D+00
      0.2530000000D+01 -0.5318019058D+00
 S   1 1.00       0.000000000000
      0.7355000000D+00  0.1000000000D+01
 S   1 1.00       0.000000000000
      0.2905000000D+00  0.1000000000D+01
 S   1 1.00       0.000000000000
      0.1111000000D+00  0.1000000000D+01
 P   3 1.00       0.000000000000
      0.3451000000D+02  0.3168785521D-01
      0.7915000000D+01  0.2128943073D+00
      0.2368000000D+01  0.8395867520D+00
 P   1 1.00       0.000000000000
      0.8132000000D+00  0.1000000000D+01
 P   1 1.00       0.000000000000
      0.2890000000D+00  0.1000000000D+01
 P   1 1.00       0.000000000000
      0.1007000000D+00  0.1000000000D+01
 D   1 1.00       0.000000000000
      0.1848000000D+01  0.1000000000D+01
 D   1 1.00       0.000000000000
      0.6490000000D+00  0.1000000000D+01
 D   1 1.00       0.000000000000
      0.2280000000D+00  0.1000000000D+01
 F   1 1.00       0.000000000000
      0.1419000000D+01  0.1000000000D+01
 F   1 1.00       0.000000000000
      0.4850000000D+00  0.1000000000D+01
 G   1 1.00       0.000000000000
      0.1011000000D+01  0.1000000000D+01
 ****
      2 0
 S   3 1.00       0.000000000000
      0.8264000000D+02  0.2295075779D-01
      0.1241000000D+02  0.1755401181D+00
      0.2824000000D+01  0.8647035510D+00
 S   1 1.00       0.000000000000
      0.7977000000D+00  0.1000000000D+01
 S   1 1.00       0.000000000000
      0.2581000000D+00  0.1000000000D+01
 S   1 1.00       0.000000000000
      0.8989000000D-01  0.1000000000D+01
 P   1 1.00       0.000000000000
      0.2292000000D+01  0.1000000000D+01
 P   1 1.00       0.000000000000
      0.8380000000D+00  0.1000000000D+01
 P   1 1.00       0.000000000000
      0.2920000000D+00  0.1000000000D+01
 D   1 1.00       0.000000000000
      0.2062000000D+01  0.1000000000D+01
 D   1 1.00       0.000000000000
      0.6620000000D+00  0.1000000000D+01
 F   1 1.00       0.000000000000
      0.1397000000D+01  0.1000000000D+01
 ****
      3 0
 S   3 1.00       0.000000000000
      0.8264000000D+02  0.2295075779D-01
      0.1241000000D+02  0.1755401181D+00
      0.2824000000D+01  0.8647035510D+00
 S   1 1.00       0.000000000000
      0.7977000000D+00  0.1000000000D+01
 S   1 1.00       0.000000000000
      0.2581000000D+00  0.1000000000D+01
 S   1 1.00       0.000000000000
      0.8989000000D-01  0.1000000000D+01
 P   1 1.00       0.000000000000
      0.2292000000D+01  0.1000000000D+01
 P   1 1.00       0.000000000000
      0.8380000000D+00  0.1000000000D+01
 P   1 1.00       0.000000000000
      0.2920000000D+00  0.1000000000D+01
 D   1 1.00       0.000000000000
      0.2062000000D+01  0.1000000000D+01
 D   1 1.00       0.000000000000
      0.6620000000D+00  0.1000000000D+01
 F   1 1.00       0.000000000000
      0.1397000000D+01  0.1000000000D+01
 ****
      4 0
 S   3 1.00       0.000000000000
      0.8264000000D+02  0.2295075779D-01
      0.1241000000D+02  0.1755401181D+00
      0.2824000000D+01  0.8647035510D+00
 S   1 1.00       0.000000000000
      0.7977000000D+00  0.1000000000D+01
 S   1 1.00       0.000000000000
      0.2581000000D+00  0.1000000000D+01
 S   1 1.00       0.000000000000
      0.8989000000D-01  0.1000000000D+01
 P   1 1.00       0.000000000000
      0.2292000000D+01  0.1000000000D+01
 P   1 1.00       0.000000000000
      0.8380000000D+00  0.1000000000D+01
 P   1 1.00       0.000000000000
      0.2920000000D+00  0.1000000000D+01
 D   1 1.00       0.000000000000
      0.2062000000D+01  0.1000000000D+01
 D   1 1.00       0.000000000000
      0.6620000000D+00  0.1000000000D+01
 F   1 1.00       0.000000000000
      0.1397000000D+01  0.1000000000D+01
 ****
      5 0
 S   3 1.00       0.000000000000
      0.8264000000D+02  0.2295075779D-01
      0.1241000000D+02  0.1755401181D+00
      0.2824000000D+01  0.8647035510D+00
 S   1 1.00       0.000000000000
      0.7977000000D+00  0.1000000000D+01
 S   1 1.00       0.000000000000
      0.2581000000D+00  0.1000000000D+01
 S   1 1.00       0.000000000000
      0.8989000000D-01  0.1000000000D+01
 P   1 1.00       0.000000000000
      0.2292000000D+01  0.1000000000D+01
 P   1 1.00       0.000000000000
      0.8380000000D+00  0.1000000000D+01
 P   1 1.00       0.000000000000
      0.2920000000D+00  0.1000000000D+01
 D   1 1.00       0.000000000000
      0.2062000000D+01  0.1000000000D+01
 D   1 1.00       0.000000000000
      0.6620000000D+00  0.1000000000D+01
 F   1 1.00       0.000000000000
      0.1397000000D+01  0.1000000000D+01
 ****

 There are    46 symmetry adapted basis functions of A   symmetry.
 There are    43 symmetry adapted basis functions of B1  symmetry.
 There are    43 symmetry adapted basis functions of B2  symmetry.
 There are    43 symmetry adapted basis functions of B3  symmetry.
 Integral buffers will be    131072 words long.
 Raffenetti 1 integral format.
 Two-electron integral symmetry is turned on.
   175 basis functions,   237 primitive gaussians,   210 cartesian basis functions
     5 alpha electrons        5 beta electrons
       nuclear repulsion energy        13.4353891954 Hartrees.
 IExCor=    0 DFT=F Ex=HF Corr=None ExCW=0 ScaHFX=  1.000000
 ScaDFX=  1.000000  1.000000  1.000000  1.000000 ScalE2=  1.000000  1.000000
 IRadAn=      0 IRanWt=     -1 IRanGd=            0 ICorTp=0
 NAtoms=    5 NActive=    5 NUniq=    2 SFac= 3.00D+00 NAtFMM=   80 NAOKFM=F Big=F
 Leave Link  301 at Sun Aug 18 13:00:15 2024, MaxMem=   13107200 cpu:       0.1
 (Enter /programs/64bit/g09/g09-gfortran/bin/l302.exe)
 NPDir=0 NMtPBC=     1 NCelOv=     1 NCel=       1 NClECP=     1 NCelD=      1
         NCelK=      1 NCelE2=     1 NClLst=     1 CellRange=     0.0.
 One-electron integrals computed using PRISM.
 One-electron integral symmetry used in STVInt
 NBasis=   175 RedAO= T  NBF=    46    43    43    43
 NBsUse=   175 1.00D-06 NBFU=    46    43    43    43
 Leave Link  302 at Sun Aug 18 13:00:16 2024, MaxMem=   13107200 cpu:       0.5
 (Enter /programs/64bit/g09/g09-gfortran/bin/l303.exe)
 DipDrv:  MaxL=1.
 Leave Link  303 at Sun Aug 18 13:00:16 2024, MaxMem=   13107200 cpu:       0.1
 (Enter /programs/64bit/g09/g09-gfortran/bin/l401.exe)
 Harris functional with IExCor=  205 diagonalized for initial guess.
 ExpMin= 8.99D-02 ExpMax= 3.40D+04 ExpMxC= 3.27D+02 IAcc=2 IRadAn=         0 AccDes= 0.00D+00
 HarFok:  IExCor=  205 AccDes= 0.00D+00 IRadAn=         0 IDoV= 1
 ScaDFX=  1.000000  1.000000  1.000000  1.000000
 FoFCou: FMM=F IPFlag=           0 FMFlag=      100000 FMFlg1=           0
         NFxFlg=           0 DoJE=T BraDBF=F KetDBF=T FulRan=T
         Omega=  0.000000  0.000000  1.000000  0.000000  0.000000 ICntrl=     500 IOpCl=  0
         NMat0=    1 NMatS0=    1 NMatT0=    0 NMatD0=    1 NMtDS0=    0 NMtDT0=    0
         I1Cent=           4 NGrid=           0.
 Petite list used in FoFCou.
 Harris En= -40.4039774057685    
 Initial guess orbital symmetries:
       Occupied  (A1) (A1) (T2) (T2) (T2)
       Virtual   (A1) (T2) (T2) (T2) (T2) (T2) (T2) (E) (E) (A1)
                 (T2) (T2) (T2) (A1) (T2) (T2) (T2) (T1) (T1) (T1)
                 (T2) (T2) (T2) (T2) (T2) (T2) (A1) (E) (E) (T2)
                 (T2) (T2) (A1) (E) (E) (T2) (T2) (T2) (T1) (T1)
                 (T1) (T2) (T2) (T2) (A1) (T1) (T1) (T1) (E) (E)
                 (T2) (T2) (T2) (T2) (T2) (T2) (E) (E) (A1) (T1)
                 (T1) (T1) (T2) (T2) (T2) (A1) (T2) (T2) (T2) (T1)
                 (T1) (T1) (T2) (T2) (T2) (A1) (T2) (T2) (T2) (E)
                 (E) (E) (E) (T2) (T2) (T2) (T1) (T1) (T1) (T2)
                 (T2) (T2) (A2) (A1) (T1) (T1) (T1) (T2) (T2) (T2)
                 (A1) (T1) (T1) (T1) (T2) (T2) (T2) (E) (E) (T2)
                 (T2) (T2) (A1) (T1) (T1) (T1) (E) (E) (T2) (T2)
                 (T2) (T2) (T2) (T2) (E) (E) (T1) (T1) (T1) (A1)
                 (T2) (T2) (T2) (A1) (E) (E) (T1) (T1) (T1) (T2)
                 (T2) (T2) (T2) (T2) (T2) (T1) (T1) (T1) (T2) (T2)
                 (T2) (E) (E) (E) (E) (T2) (T2) (T2) (A1) (T2)
                 (T2) (T2) (T1) (T1) (T1) (A1) (T2) (T2) (T2) (A1)
 The electronic state of the initial guess is 1-A1.
 Leave Link  401 at Sun Aug 18 13:00:18 2024, MaxMem=   13107200 cpu:       2.3
 (Enter /programs/64bit/g09/g09-gfortran/bin/l502.exe)
 Closed shell SCF:
 Requested convergence on RMS density matrix=1.00D-08 within 128 cycles.
 Requested convergence on MAX density matrix=1.00D-06.
 Requested convergence on             energy=1.00D-06.
 No special actions if energy rises.
 Using DIIS extrapolation, IDIIS=  1040.
 Integral symmetry usage will be decided dynamically.
 IEnd=      154996 IEndB=      154996 NGot=    13107200 MDV=    13013155
 LenX=    13013155 LenY=    12968614
 Fock matrices will be formed incrementally for  20 cycles.
 Integral accuracy reduced to 1.0D-05 until final iterations.

 Cycle   1  Pass 0  IDiag  1:
 FoFCou: FMM=F IPFlag=           0 FMFlag=      100000 FMFlg1=           0
         NFxFlg=           0 DoJE=F BraDBF=F KetDBF=F FulRan=T
         Omega=  0.000000  0.000000  1.000000  0.000000  0.000000 ICntrl=       0 IOpCl=  0
         NMat0=    1 NMatS0=    1 NMatT0=    0 NMatD0=    1 NMtDS0=    0 NMtDT0=    0
         I1Cent=           0 NGrid=           0.
 Petite list used in FoFCou.
 E= -40.0763448260775    
 DIIS: error= 8.85D-02 at cycle   1 NSaved=   1.
 NSaved= 1 IEnMin= 1 EnMin= -40.0763448260775     IErMin= 1 ErrMin= 8.85D-02
 ErrMax= 8.85D-02 EMaxC= 1.00D-01 BMatC= 1.85D-01 BMatP= 1.85D-01
 IDIUse=3 WtCom= 1.15D-01 WtEn= 8.85D-01
 Coeff-Com:  0.100D+01
 Coeff-En:   0.100D+01
 Coeff:      0.100D+01
 Gap=     0.578 Goal=   None    Shift=    0.000
 GapD=    0.578 DampG=2.000 DampE=0.500 DampFc=1.0000 IDamp=-1.
 RMSDP=1.31D-03 MaxDP=5.40D-02              OVMax= 1.51D-01

 Cycle   2  Pass 0  IDiag  1:
 RMSU=  8.78D-04    CP:  9.15D-01
 E= -40.1934281081506     Delta-E=       -0.117083282073 Rises=F Damp=F
 DIIS: error= 3.38D-02 at cycle   2 NSaved=   2.
 NSaved= 2 IEnMin= 2 EnMin= -40.1934281081506     IErMin= 2 ErrMin= 3.38D-02
 ErrMax= 3.38D-02 EMaxC= 1.00D-01 BMatC= 2.55D-02 BMatP= 1.85D-01
 IDIUse=3 WtCom= 6.62D-01 WtEn= 3.38D-01
 Coeff-Com:  0.234D+00 0.766D+00
 Coeff-En:   0.000D+00 0.100D+01
 Coeff:      0.155D+00 0.845D+00
 Gap=     0.679 Goal=   None    Shift=    0.000
 RMSDP=4.42D-04 MaxDP=2.10D-02 DE=-1.17D-01 OVMax= 5.08D-02

 Cycle   3  Pass 0  IDiag  1:
 RMSU=  1.65D-04    CP:  9.49D-01  7.30D-01
 E= -40.2151447375635     Delta-E=       -0.021716629413 Rises=F Damp=F
 DIIS: error= 6.98D-03 at cycle   3 NSaved=   3.
 NSaved= 3 IEnMin= 3 EnMin= -40.2151447375635     IErMin= 3 ErrMin= 6.98D-03
 ErrMax= 6.98D-03 EMaxC= 1.00D-01 BMatC= 9.41D-04 BMatP= 2.55D-02
 IDIUse=3 WtCom= 9.30D-01 WtEn= 6.98D-02
 Coeff-Com: -0.286D-01 0.110D+00 0.919D+00
 Coeff-En:   0.000D+00 0.000D+00 0.100D+01
 Coeff:     -0.266D-01 0.102D+00 0.924D+00
 Gap=     0.660 Goal=   None    Shift=    0.000
 RMSDP=9.90D-05 MaxDP=4.04D-03 DE=-2.17D-02 OVMax= 9.74D-03

 Cycle   4  Pass 0  IDiag  1:
 RMSU=  3.06D-05    CP:  9.45D-01  8.00D-01  1.01D+00
 E= -40.2160945271239     Delta-E=       -0.000949789560 Rises=F Damp=F
 DIIS: error= 5.94D-04 at cycle   4 NSaved=   4.
 NSaved= 4 IEnMin= 4 EnMin= -40.2160945271239     IErMin= 4 ErrMin= 5.94D-04
 ErrMax= 5.94D-04 EMaxC= 1.00D-01 BMatC= 7.29D-06 BMatP= 9.41D-04
 IDIUse=3 WtCom= 9.94D-01 WtEn= 5.94D-03
 Coeff-Com:  0.675D-02-0.465D-01-0.269D+00 0.131D+01
 Coeff-En:   0.000D+00 0.000D+00 0.000D+00 0.100D+01
 Coeff:      0.671D-02-0.462D-01-0.267D+00 0.131D+01
 Gap=     0.660 Goal=   None    Shift=    0.000
 RMSDP=2.56D-05 MaxDP=9.97D-04 DE=-9.50D-04 OVMax= 1.64D-03

 Cycle   5  Pass 0  IDiag  1:
 RMSU=  3.37D-06    CP:  9.46D-01  8.07D-01  1.06D+00  1.46D+00
 E= -40.2161104548730     Delta-E=       -0.000015927749 Rises=F Damp=F
 DIIS: error= 7.30D-05 at cycle   5 NSaved=   5.
 NSaved= 5 IEnMin= 5 EnMin= -40.2161104548730     IErMin= 5 ErrMin= 7.30D-05
 ErrMax= 7.30D-05 EMaxC= 1.00D-01 BMatC= 1.46D-07 BMatP= 7.29D-06
 IDIUse=1 WtCom= 1.00D+00 WtEn= 0.00D+00
 Coeff-Com: -0.415D-03 0.466D-02 0.262D-01-0.261D+00 0.123D+01
 Coeff:     -0.415D-03 0.466D-02 0.262D-01-0.261D+00 0.123D+01
 Gap=     0.660 Goal=   None    Shift=    0.000
 RMSDP=4.85D-06 MaxDP=1.43D-04 DE=-1.59D-05 OVMax= 2.83D-04

 Initial convergence to 1.0D-05 achieved.  Increase integral accuracy.
 Cycle   6  Pass 1  IDiag  1:
 E= -40.2161107658228     Delta-E=       -0.000000310950 Rises=F Damp=F
 DIIS: error= 3.51D-06 at cycle   1 NSaved=   1.
 NSaved= 1 IEnMin= 1 EnMin= -40.2161107658228     IErMin= 1 ErrMin= 3.51D-06
 ErrMax= 3.51D-06 EMaxC= 1.00D-01 BMatC= 5.42D-10 BMatP= 5.42D-10
 IDIUse=1 WtCom= 1.00D+00 WtEn= 0.00D+00
 Coeff-Com:  0.100D+01
 Coeff:      0.100D+01
 Gap=     0.660 Goal=   None    Shift=    0.000
 RMSDP=4.85D-06 MaxDP=1.43D-04 DE=-3.11D-07 OVMax= 1.27D-05

 Cycle   7  Pass 1  IDiag  1:
 RMSU=  2.92D-07    CP:  1.00D+00
 E= -40.2161107670580     Delta-E=       -0.000000001235 Rises=F Damp=F
 DIIS: error= 9.24D-07 at cycle   2 NSaved=   2.
 NSaved= 2 IEnMin= 2 EnMin= -40.2161107670580     IErMin= 2 ErrMin= 9.24D-07
 ErrMax= 9.24D-07 EMaxC= 1.00D-01 BMatC= 4.39D-11 BMatP= 5.42D-10
 IDIUse=1 WtCom= 1.00D+00 WtEn= 0.00D+00
 Coeff-Com: -0.343D+00 0.134D+01
 Coeff:     -0.343D+00 0.134D+01
 Gap=     0.660 Goal=   None    Shift=    0.000
 RMSDP=1.70D-07 MaxDP=4.46D-06 DE=-1.24D-09 OVMax= 5.20D-06

 Cycle   8  Pass 1  IDiag  1:
 RMSU=  1.04D-08    CP:  1.00D+00  1.40D+00
 E= -40.2161107671832     Delta-E=       -0.000000000125 Rises=F Damp=F
 DIIS: error= 2.20D-07 at cycle   3 NSaved=   3.
 NSaved= 3 IEnMin= 3 EnMin= -40.2161107671832     IErMin= 3 ErrMin= 2.20D-07
 ErrMax= 2.20D-07 EMaxC= 1.00D-01 BMatC= 9.22D-13 BMatP= 4.39D-11
 IDIUse=1 WtCom= 1.00D+00 WtEn= 0.00D+00
 Coeff-Com:  0.102D-01-0.734D-01 0.106D+01
 Coeff:      0.102D-01-0.734D-01 0.106D+01
 Gap=     0.660 Goal=   None    Shift=    0.000
 RMSDP=1.28D-08 MaxDP=4.08D-07 DE=-1.25D-10 OVMax= 6.06D-07

 Cycle   9  Pass 1  IDiag  1:
 RMSU=  3.59D-09    CP:  1.00D+00  1.43D+00  1.24D+00
 E= -40.2161107671853     Delta-E=       -0.000000000002 Rises=F Damp=F
 DIIS: error= 6.14D-08 at cycle   4 NSaved=   4.
 NSaved= 4 IEnMin= 4 EnMin= -40.2161107671853     IErMin= 4 ErrMin= 6.14D-08
 ErrMax= 6.14D-08 EMaxC= 1.00D-01 BMatC= 1.55D-13 BMatP= 9.22D-13
 IDIUse=1 WtCom= 1.00D+00 WtEn= 0.00D+00
 Coeff-Com:  0.426D-01-0.176D+00 0.163D+00 0.971D+00
 Coeff:      0.426D-01-0.176D+00 0.163D+00 0.971D+00
 Gap=     0.660 Goal=   None    Shift=    0.000
 RMSDP=3.62D-09 MaxDP=1.08D-07 DE=-2.16D-12 OVMax= 1.91D-07

 SCF Done:  E(RHF) =  -40.2161107672     A.U. after    9 cycles
             Convg  =    0.3616D-08             -V/T =  2.0013
 KE= 4.016405010218D+01 PE=-1.199014815007D+02 EE= 2.608593143597D+01
 Leave Link  502 at Sun Aug 18 13:00:55 2024, MaxMem=   13107200 cpu:      35.7
 (Enter /programs/64bit/g09/g09-gfortran/bin/l601.exe)
 Copying SCF densities to generalized density rwf, IOpCl= 0 IROHF=0.

 **********************************************************************

            Population analysis using the SCF density.

 **********************************************************************

 Orbital symmetries:
       Occupied  (A1) (A1) (T2) (T2) (T2)
       Virtual   (A1) (T2) (T2) (T2) (T2) (T2) (T2) (A1) (T2) (T2)
                 (T2) (E) (E) (A1) (T1) (T1) (T1) (T2) (T2) (T2)
                 (T2) (T2) (T2) (T2) (T2) (T2) (A1) (E) (E) (T2)
                 (T2) (T2) (A1) (E) (E) (T2) (T2) (T2) (T1) (T1)
                 (T1) (T2) (T2) (T2) (A1) (T1) (T1) (T1) (E) (E)
                 (T2) (T2) (T2) (T2) (T2) (T2) (E) (E) (A1) (T1)
                 (T1) (T1) (T2) (T2) (T2) (A1) (T2) (T2) (T2) (T1)
                 (T1) (T1) (T2) (T2) (T2) (A1) (T2) (T2) (T2) (E)
                 (E) (E) (E) (T2) (T2) (T2) (T1) (T1) (T1) (A2)
                 (T2) (T2) (T2) (T1) (T1) (T1) (A1) (A1) (T2) (T2)
                 (T2) (T1) (T1) (T1) (T2) (T2) (T2) (E) (E) (A1)
                 (T2) (T2) (T2) (T1) (T1) (T1) (E) (E) (T2) (T2)
                 (T2) (T2) (T2) (T2) (E) (E) (T1) (T1) (T1) (A1)
                 (T2) (T2) (T2) (E) (E) (A1) (T1) (T1) (T1) (T2)
                 (T2) (T2) (T2) (T2) (T2) (T1) (T1) (T1) (T2) (T2)
                 (T2) (E) (E) (E) (E) (T2) (T2) (T2) (T2) (T2)
                 (T2) (A1) (T1) (T1) (T1) (A1) (T2) (T2) (T2) (A1)
 The electronic state is 1-A1.
 Alpha  occ. eigenvalues --  -11.20636  -0.94230  -0.54471  -0.54471  -0.54471
 Alpha virt. eigenvalues --    0.11538   0.19948   0.19948   0.19948   0.27720
 Alpha virt. eigenvalues --    0.27720   0.27720   0.48507   0.53268   0.53268
 Alpha virt. eigenvalues --    0.53268   0.54000   0.54000   0.62845   0.82759
 Alpha virt. eigenvalues --    0.82759   0.82759   0.83256   0.83256   0.83256
 Alpha virt. eigenvalues --    0.95245   0.95245   0.95245   1.14867   1.14867
 Alpha virt. eigenvalues --    1.14867   1.18271   1.20795   1.20795   1.49207
 Alpha virt. eigenvalues --    1.49207   1.49207   1.52990   1.92233   1.92233
 Alpha virt. eigenvalues --    1.95304   1.95304   1.95304   2.04381   2.04381
 Alpha virt. eigenvalues --    2.04381   2.15916   2.15916   2.15916   2.33744
 Alpha virt. eigenvalues --    2.35534   2.35534   2.35534   2.48348   2.48348
 Alpha virt. eigenvalues --    2.58959   2.58959   2.58959   2.64432   2.64432
 Alpha virt. eigenvalues --    2.64432   2.75174   2.75174   2.79626   3.10907
 Alpha virt. eigenvalues --    3.10907   3.10907   3.18520   3.18520   3.18520
 Alpha virt. eigenvalues --    3.37457   3.43177   3.43177   3.43177   3.45746
 Alpha virt. eigenvalues --    3.45746   3.45746   3.66815   3.66815   3.66815
 Alpha virt. eigenvalues --    4.00253   4.12070   4.12070   4.12070   4.12769
 Alpha virt. eigenvalues --    4.12769   5.59517   5.59517   5.66312   5.66312
 Alpha virt. eigenvalues --    5.66312   5.72267   5.72267   5.72267   6.20775
 Alpha virt. eigenvalues --    6.24716   6.24716   6.24716   6.32474   6.32474
 Alpha virt. eigenvalues --    6.32474   6.36349   6.37758   6.41951   6.41951
 Alpha virt. eigenvalues --    6.41951   6.46146   6.46146   6.46146   6.53630
 Alpha virt. eigenvalues --    6.53630   6.53630   7.00955   7.00955   7.03063
 Alpha virt. eigenvalues --    7.10550   7.10550   7.10550   7.56022   7.56022
 Alpha virt. eigenvalues --    7.56022   7.62954   7.62954   7.64984   7.64984
 Alpha virt. eigenvalues --    7.64984   7.98364   7.98364   7.98364   7.98822
 Alpha virt. eigenvalues --    7.98822   8.03561   8.03561   8.03561   8.25721
 Alpha virt. eigenvalues --    8.28781   8.28781   8.28781   8.66076   8.66076
 Alpha virt. eigenvalues --    8.68318   8.73280   8.73280   8.73280   8.75273
 Alpha virt. eigenvalues --    8.75273   8.75273   8.90733   8.90733   8.90733
 Alpha virt. eigenvalues --    9.31390   9.31390   9.31390   9.39561   9.39561
 Alpha virt. eigenvalues --    9.39561   9.77531   9.77531  10.16379  10.16379
 Alpha virt. eigenvalues --   10.29003  10.29003  10.29003  10.46824  10.46824
 Alpha virt. eigenvalues --   10.46824  10.51136  10.90129  10.90129  10.90129
 Alpha virt. eigenvalues --   11.12919  12.82047  12.82047  12.82047  27.50199
     Molecular Orbital Coefficients:
                           1         2         3         4         5
                        (A1)--O   (A1)--O   (T2)--O   (T2)--O   (T2)--O
     Eigenvalues --   -11.20636  -0.94230  -0.54471  -0.54471  -0.54471
   1 1   C  1S          0.62643  -0.11242   0.00000   0.00000   0.00000
   2        2S         -0.40703   0.18071   0.00000   0.00000   0.00000
   3        3S          0.02062   0.19441   0.00000   0.00000   0.00000
   4        4S         -0.00989   0.41685   0.00000   0.00000   0.00000
   5        5S         -0.00112   0.11274   0.00000   0.00000   0.00000
   6        6PX         0.00000   0.00000   0.00000   0.11249   0.00000
   7        6PY         0.00000   0.00000   0.11249   0.00000   0.00000
   8        6PZ         0.00000   0.00000   0.00000   0.00000   0.11249
   9        7PX         0.00000   0.00000   0.00000   0.21716   0.00000
  10        7PY         0.00000   0.00000   0.21716   0.00000   0.00000
  11        7PZ         0.00000   0.00000   0.00000   0.00000   0.21716
  12        8PX         0.00000   0.00000   0.00000   0.24495   0.00000
  13        8PY         0.00000   0.00000   0.24495   0.00000   0.00000
  14        8PZ         0.00000   0.00000   0.00000   0.00000   0.24495
  15        9PX         0.00000   0.00000   0.00000   0.09084   0.00000
  16        9PY         0.00000   0.00000   0.09084   0.00000   0.00000
  17        9PZ         0.00000   0.00000   0.00000   0.00000   0.09084
  18       10D 0       -0.00000  -0.00000   0.00000   0.00000   0.00000
  19       10D+1        0.00000   0.00000   0.00747   0.00000   0.00000
  20       10D-1        0.00000   0.00000   0.00000   0.00747   0.00000
  21       10D+2        0.00000   0.00000   0.00000   0.00000   0.00000
  22       10D-2        0.00000   0.00000   0.00000   0.00000   0.00747
  23       11D 0       -0.00000   0.00000   0.00000   0.00000   0.00000
  24       11D+1        0.00000   0.00000   0.01798   0.00000   0.00000
  25       11D-1        0.00000   0.00000   0.00000   0.01798   0.00000
  26       11D+2        0.00000  -0.00000   0.00000   0.00000   0.00000
  27       11D-2        0.00000   0.00000   0.00000   0.00000   0.01798
  28       12D 0        0.00000   0.00000   0.00000   0.00000   0.00000
  29       12D+1        0.00000   0.00000   0.01683   0.00000   0.00000
  30       12D-1        0.00000   0.00000   0.00000   0.01683   0.00000
  31       12D+2        0.00000  -0.00000   0.00000   0.00000   0.00000
  32       12D-2        0.00000   0.00000   0.00000   0.00000   0.01683
  33       13F 0        0.00000   0.00000   0.00000   0.00000  -0.00117
  34       13F+1        0.00000   0.00000   0.00000   0.00071   0.00000
  35       13F-1        0.00000   0.00000   0.00071   0.00000   0.00000
  36       13F+2        0.00000   0.00000   0.00000   0.00000  -0.00000
  37       13F-2        0.00035   0.00323   0.00000   0.00000   0.00000
  38       13F+3        0.00000   0.00000   0.00000  -0.00092   0.00000
  39       13F-3        0.00000   0.00000   0.00092   0.00000   0.00000
  40       14F 0        0.00000   0.00000   0.00000   0.00000  -0.00004
  41       14F+1        0.00000   0.00000   0.00000   0.00002   0.00000
  42       14F-1        0.00000   0.00000   0.00002   0.00000   0.00000
  43       14F+2        0.00000   0.00000   0.00000   0.00000  -0.00000
  44       14F-2       -0.00032   0.01054   0.00000   0.00000   0.00000
  45       14F+3        0.00000   0.00000   0.00000  -0.00003   0.00000
  46       14F-3        0.00000   0.00000   0.00003   0.00000   0.00000
  47       15G 0       -0.00004  -0.00102   0.00000   0.00000   0.00000
  48       15G+1        0.00000   0.00000  -0.00031   0.00000   0.00000
  49       15G-1        0.00000   0.00000   0.00000  -0.00031   0.00000
  50       15G+2       -0.00000  -0.00000   0.00000   0.00000   0.00000
  51       15G-2        0.00000   0.00000   0.00000   0.00000   0.00087
  52       15G+3        0.00000   0.00000  -0.00082   0.00000   0.00000
  53       15G-3        0.00000   0.00000   0.00000   0.00082   0.00000
  54       15G+4       -0.00003  -0.00087   0.00000   0.00000   0.00000
  55       15G-4        0.00000   0.00000   0.00000   0.00000  -0.00000
  56 2   H  1S          0.00010   0.03166   0.03796   0.03796   0.03796
  57        2S          0.00037   0.07563   0.10168   0.10168   0.10168
  58        3S          0.00205   0.07973   0.14895   0.14895   0.14895
  59        4S          0.00008   0.00889   0.05204   0.05204   0.05204
  60        5PX        -0.00003  -0.00197  -0.00188  -0.00003  -0.00188
  61        5PY        -0.00003  -0.00197  -0.00003  -0.00188  -0.00188
  62        5PZ        -0.00003  -0.00197  -0.00188  -0.00188  -0.00003
  63        6PX        -0.00002  -0.00461  -0.00795  -0.00227  -0.00795
  64        6PY        -0.00002  -0.00461  -0.00227  -0.00795  -0.00795
  65        6PZ        -0.00002  -0.00461  -0.00795  -0.00795  -0.00227
  66        7PX        -0.00047  -0.00270  -0.00866   0.00074  -0.00866
  67        7PY        -0.00047  -0.00270   0.00074  -0.00866  -0.00866
  68        7PZ        -0.00047  -0.00270  -0.00866  -0.00866   0.00074
  69        8D 0       -0.00000  -0.00000   0.00021   0.00021  -0.00043
  70        8D+1        0.00002   0.00046   0.00086   0.00038   0.00038
  71        8D-1        0.00002   0.00046   0.00038   0.00086   0.00038
  72        8D+2       -0.00000  -0.00000   0.00037  -0.00037   0.00000
  73        8D-2        0.00002   0.00046   0.00038   0.00038   0.00086
  74        9D 0       -0.00000   0.00000   0.00063   0.00063  -0.00125
  75        9D+1       -0.00003   0.00098   0.00222   0.00114   0.00114
  76        9D-1       -0.00003   0.00098   0.00114   0.00222   0.00114
  77        9D+2        0.00000  -0.00000   0.00108  -0.00108  -0.00000
  78        9D-2       -0.00003   0.00098   0.00114   0.00114   0.00222
  79       10F 0        0.00001   0.00007   0.00014   0.00014   0.00023
  80       10F+1       -0.00001  -0.00004  -0.00025  -0.00014   0.00008
  81       10F-1       -0.00001  -0.00004  -0.00014  -0.00025   0.00008
  82       10F+2        0.00000   0.00000  -0.00021   0.00021   0.00000
  83       10F-2       -0.00002  -0.00018  -0.00040  -0.00040  -0.00040
  84       10F+3        0.00001   0.00006  -0.00002   0.00018   0.00024
  85       10F-3       -0.00001  -0.00006  -0.00018   0.00002  -0.00024
  86 3   H  1S          0.00010   0.03166  -0.03796  -0.03796   0.03796
  87        2S          0.00037   0.07563  -0.10168  -0.10168   0.10168
  88        3S          0.00205   0.07973  -0.14895  -0.14895   0.14895
  89        4S          0.00008   0.00889  -0.05204  -0.05204   0.05204
  90        5PX         0.00003   0.00197  -0.00188  -0.00003   0.00188
  91        5PY         0.00003   0.00197  -0.00003  -0.00188   0.00188
  92        5PZ        -0.00003  -0.00197   0.00188   0.00188  -0.00003
  93        6PX         0.00002   0.00461  -0.00795  -0.00227   0.00795
  94        6PY         0.00002   0.00461  -0.00227  -0.00795   0.00795
  95        6PZ        -0.00002  -0.00461   0.00795   0.00795  -0.00227
  96        7PX         0.00047   0.00270  -0.00866   0.00074   0.00866
  97        7PY         0.00047   0.00270   0.00074  -0.00866   0.00866
  98        7PZ        -0.00047  -0.00270   0.00866   0.00866   0.00074
  99        8D 0       -0.00000  -0.00000  -0.00021  -0.00021  -0.00043
 100        8D+1       -0.00002  -0.00046   0.00086   0.00038  -0.00038
 101        8D-1       -0.00002  -0.00046   0.00038   0.00086  -0.00038
 102        8D+2       -0.00000  -0.00000  -0.00037   0.00037   0.00000
 103        8D-2        0.00002   0.00046  -0.00038  -0.00038   0.00086
 104        9D 0       -0.00000   0.00000  -0.00063  -0.00063  -0.00125
 105        9D+1        0.00003  -0.00098   0.00222   0.00114  -0.00114
 106        9D-1        0.00003  -0.00098   0.00114   0.00222  -0.00114
 107        9D+2        0.00000  -0.00000  -0.00108   0.00108  -0.00000
 108        9D-2       -0.00003   0.00098  -0.00114  -0.00114   0.00222
 109       10F 0        0.00001   0.00007  -0.00014  -0.00014   0.00023
 110       10F+1        0.00001   0.00004  -0.00025  -0.00014  -0.00008
 111       10F-1        0.00001   0.00004  -0.00014  -0.00025  -0.00008
 112       10F+2        0.00000   0.00000   0.00021  -0.00021   0.00000
 113       10F-2       -0.00002  -0.00018   0.00040   0.00040  -0.00040
 114       10F+3       -0.00001  -0.00006  -0.00002   0.00018  -0.00024
 115       10F-3        0.00001   0.00006  -0.00018   0.00002   0.00024
 116 4   H  1S          0.00010   0.03166   0.03796  -0.03796  -0.03796
 117        2S          0.00037   0.07563   0.10168  -0.10168  -0.10168
 118        3S          0.00205   0.07973   0.14895  -0.14895  -0.14895
 119        4S          0.00008   0.00889   0.05204  -0.05204  -0.05204
 120        5PX         0.00003   0.00197   0.00188  -0.00003  -0.00188
 121        5PY        -0.00003  -0.00197  -0.00003   0.00188   0.00188
 122        5PZ         0.00003   0.00197   0.00188  -0.00188  -0.00003
 123        6PX         0.00002   0.00461   0.00795  -0.00227  -0.00795
 124        6PY        -0.00002  -0.00461  -0.00227   0.00795   0.00795
 125        6PZ         0.00002   0.00461   0.00795  -0.00795  -0.00227
 126        7PX         0.00047   0.00270   0.00866   0.00074  -0.00866
 127        7PY        -0.00047  -0.00270   0.00074   0.00866   0.00866
 128        7PZ         0.00047   0.00270   0.00866  -0.00866   0.00074
 129        8D 0       -0.00000  -0.00000   0.00021  -0.00021   0.00043
 130        8D+1        0.00002   0.00046   0.00086  -0.00038  -0.00038
 131        8D-1       -0.00002  -0.00046  -0.00038   0.00086   0.00038
 132        8D+2       -0.00000  -0.00000   0.00037   0.00037  -0.00000
 133        8D-2       -0.00002  -0.00046  -0.00038   0.00038   0.00086
 134        9D 0       -0.00000   0.00000   0.00063  -0.00063   0.00125
 135        9D+1       -0.00003   0.00098   0.00222  -0.00114  -0.00114
 136        9D-1        0.00003  -0.00098  -0.00114   0.00222   0.00114
 137        9D+2        0.00000  -0.00000   0.00108   0.00108   0.00000
 138        9D-2        0.00003  -0.00098  -0.00114   0.00114   0.00222
 139       10F 0       -0.00001  -0.00007  -0.00014   0.00014   0.00023
 140       10F+1        0.00001   0.00004   0.00025  -0.00014   0.00008
 141       10F-1       -0.00001  -0.00004  -0.00014   0.00025  -0.00008
 142       10F+2       -0.00000  -0.00000   0.00021   0.00021   0.00000
 143       10F-2       -0.00002  -0.00018  -0.00040   0.00040   0.00040
 144       10F+3       -0.00001  -0.00006   0.00002   0.00018   0.00024
 145       10F-3       -0.00001  -0.00006  -0.00018  -0.00002   0.00024
 146 5   H  1S          0.00010   0.03166  -0.03796   0.03796  -0.03796
 147        2S          0.00037   0.07563  -0.10168   0.10168  -0.10168
 148        3S          0.00205   0.07973  -0.14895   0.14895  -0.14895
 149        4S          0.00008   0.00889  -0.05204   0.05204  -0.05204
 150        5PX        -0.00003  -0.00197   0.00188  -0.00003   0.00188
 151        5PY         0.00003   0.00197  -0.00003   0.00188  -0.00188
 152        5PZ         0.00003   0.00197  -0.00188   0.00188  -0.00003
 153        6PX        -0.00002  -0.00461   0.00795  -0.00227   0.00795
 154        6PY         0.00002   0.00461  -0.00227   0.00795  -0.00795
 155        6PZ         0.00002   0.00461  -0.00795   0.00795  -0.00227
 156        7PX        -0.00047  -0.00270   0.00866   0.00074   0.00866
 157        7PY         0.00047   0.00270   0.00074   0.00866  -0.00866
 158        7PZ         0.00047   0.00270  -0.00866   0.00866   0.00074
 159        8D 0       -0.00000  -0.00000  -0.00021   0.00021   0.00043
 160        8D+1       -0.00002  -0.00046   0.00086  -0.00038   0.00038
 161        8D-1        0.00002   0.00046  -0.00038   0.00086  -0.00038
 162        8D+2       -0.00000  -0.00000  -0.00037  -0.00037  -0.00000
 163        8D-2       -0.00002  -0.00046   0.00038  -0.00038   0.00086
 164        9D 0       -0.00000   0.00000  -0.00063   0.00063   0.00125
 165        9D+1        0.00003  -0.00098   0.00222  -0.00114   0.00114
 166        9D-1       -0.00003   0.00098  -0.00114   0.00222  -0.00114
 167        9D+2        0.00000  -0.00000  -0.00108  -0.00108   0.00000
 168        9D-2        0.00003  -0.00098   0.00114  -0.00114   0.00222
 169       10F 0       -0.00001  -0.00007   0.00014  -0.00014   0.00023
 170       10F+1       -0.00001  -0.00004   0.00025  -0.00014  -0.00008
 171       10F-1        0.00001   0.00004  -0.00014   0.00025   0.00008
 172       10F+2       -0.00000  -0.00000  -0.00021  -0.00021   0.00000
 173       10F-2       -0.00002  -0.00018   0.00040  -0.00040   0.00040
 174       10F+3        0.00001   0.00006   0.00002   0.00018  -0.00024
 175       10F-3        0.00001   0.00006  -0.00018  -0.00002  -0.00024
                           6         7         8         9        10
                        (A1)--V   (T2)--V   (T2)--V   (T2)--V   (T2)--V
     Eigenvalues --     0.11538   0.19948   0.19948   0.19948   0.27720
   1 1   C  1S         -0.04194   0.00000   0.00000   0.00000   0.00000
   2        2S          0.06948   0.00000   0.00000   0.00000   0.00000
   3        3S         -0.15912   0.00000   0.00000   0.00000   0.00000
   4        4S          2.12104   0.00000   0.00000   0.00000   0.00000
   5        5S          5.90636   0.00000   0.00000   0.00000   0.00000
   6        6PX         0.00000   0.00000  -0.05888   0.00000  -0.03829
   7        6PY         0.00000   0.00000   0.00000  -0.05888   0.00000
   8        6PZ         0.00000  -0.05888   0.00000   0.00000   0.00000
   9        7PX         0.00000   0.00000  -0.08775   0.00000   0.01450
  10        7PY         0.00000   0.00000   0.00000  -0.08775   0.00000
  11        7PZ         0.00000  -0.08775   0.00000   0.00000   0.00000
  12        8PX         0.00000   0.00000  -0.70586   0.00000   2.63861
  13        8PY         0.00000   0.00000   0.00000  -0.70586   0.00000
  14        8PZ         0.00000  -0.70586   0.00000   0.00000   0.00000
  15        9PX         0.00000   0.00000  -2.12031   0.00000   3.57283
  16        9PY         0.00000   0.00000   0.00000  -2.12031   0.00000
  17        9PZ         0.00000  -2.12031   0.00000   0.00000   0.00000
  18       10D 0       -0.00000   0.00000   0.00000   0.00000   0.00000
  19       10D+1        0.00000   0.00000   0.00000  -0.00164   0.00000
  20       10D-1        0.00000   0.00000  -0.00164   0.00000  -0.01529
  21       10D+2       -0.00000   0.00000   0.00000   0.00000   0.00000
  22       10D-2        0.00000  -0.00164   0.00000   0.00000   0.00000
  23       11D 0       -0.00000   0.00000   0.00000   0.00000   0.00000
  24       11D+1        0.00000   0.00000   0.00000   0.02466   0.00000
  25       11D-1        0.00000   0.00000   0.02466   0.00000   0.22134
  26       11D+2       -0.00000   0.00000   0.00000   0.00000   0.00000
  27       11D-2        0.00000   0.02466   0.00000   0.00000   0.00000
  28       12D 0       -0.00000   0.00000   0.00000   0.00000   0.00000
  29       12D+1        0.00000   0.00000   0.00000  -0.28362   0.00000
  30       12D-1        0.00000   0.00000  -0.28362   0.00000   1.15563
  31       12D+2       -0.00000   0.00000   0.00000   0.00000   0.00000
  32       12D-2        0.00000  -0.28362   0.00000   0.00000   0.00000
  33       13F 0        0.00000  -0.00254   0.00000   0.00000   0.00000
  34       13F+1        0.00000   0.00000   0.00156   0.00000   0.00667
  35       13F-1        0.00000   0.00000   0.00000   0.00156   0.00000
  36       13F+2        0.00000   0.00000   0.00000   0.00000   0.00000
  37       13F-2        0.00484   0.00000   0.00000   0.00000   0.00000
  38       13F+3        0.00000   0.00000  -0.00201   0.00000  -0.00862
  39       13F-3        0.00000   0.00000   0.00000   0.00201   0.00000
  40       14F 0        0.00000  -0.00966   0.00000   0.00000   0.00000
  41       14F+1        0.00000   0.00000   0.00591   0.00000   0.03767
  42       14F-1        0.00000   0.00000   0.00000   0.00591   0.00000
  43       14F+2        0.00000   0.00000   0.00000   0.00000   0.00000
  44       14F-2        0.11992   0.00000   0.00000   0.00000   0.00000
  45       14F+3        0.00000   0.00000  -0.00763   0.00000  -0.04863
  46       14F-3        0.00000   0.00000   0.00000   0.00763   0.00000
  47       15G 0       -0.00757   0.00000   0.00000   0.00000   0.00000
  48       15G+1        0.00000   0.00000   0.00000   0.00087   0.00000
  49       15G-1        0.00000   0.00000   0.00087   0.00000  -0.00757
  50       15G+2       -0.00000   0.00000   0.00000   0.00000   0.00000
  51       15G-2        0.00000  -0.00246   0.00000   0.00000   0.00000
  52       15G+3        0.00000   0.00000   0.00000   0.00230   0.00000
  53       15G-3        0.00000   0.00000  -0.00230   0.00000   0.02002
  54       15G+4       -0.00640   0.00000   0.00000   0.00000   0.00000
  55       15G-4        0.00000   0.00000   0.00000   0.00000   0.00000
  56 2   H  1S          0.00426  -0.00302  -0.00302  -0.00302  -0.01561
  57        2S         -0.03128   0.01265   0.01265   0.01265  -0.00949
  58        3S         -0.99582   0.32211   0.32211   0.32211  -2.72864
  59        4S         -1.42585   2.18095   2.18095   2.18095  -1.08656
  60        5PX        -0.00160  -0.00234  -0.00245  -0.00234  -0.01056
  61        5PY        -0.00160  -0.00234  -0.00234  -0.00245  -0.00949
  62        5PZ        -0.00160  -0.00245  -0.00234  -0.00234  -0.00949
  63        6PX         0.01737   0.02510   0.01673   0.02510   0.09319
  64        6PY         0.01737   0.02510   0.02510   0.01673   0.07301
  65        6PZ         0.01737   0.01673   0.02510   0.02510   0.07301
  66        7PX         0.27875  -0.18132  -0.12612  -0.18132   0.32774
  67        7PY         0.27875  -0.18132  -0.18132  -0.12612   0.53965
  68        7PZ         0.27875  -0.12612  -0.18132  -0.18132   0.53965
  69        8D 0        0.00000   0.00008  -0.00004  -0.00004   0.00021
  70        8D+1        0.00146  -0.00178  -0.00178  -0.00218  -0.00222
  71        8D-1        0.00146  -0.00178  -0.00218  -0.00178   0.00434
  72        8D+2        0.00000  -0.00000   0.00007  -0.00007  -0.00036
  73        8D-2        0.00146  -0.00218  -0.00178  -0.00178  -0.00222
  74        9D 0       -0.00000  -0.00408   0.00204   0.00204  -0.00731
  75        9D+1       -0.02860   0.00598   0.00598   0.01472  -0.04266
  76        9D-1       -0.02860   0.00598   0.01472   0.00598  -0.09187
  77        9D+2       -0.00000   0.00000  -0.00353   0.00353   0.01265
  78        9D-2       -0.02860   0.01472   0.00598   0.00598  -0.04266
  79       10F 0       -0.00097   0.00036  -0.00047  -0.00047  -0.00351
  80       10F+1        0.00059   0.00118  -0.00022  -0.00060   0.00229
  81       10F-1        0.00059   0.00118  -0.00060  -0.00022   0.00350
  82       10F+2        0.00000  -0.00000   0.00112  -0.00112  -0.00171
  83       10F-2        0.00259   0.00091   0.00091   0.00091   0.00640
  84       10F+3       -0.00077   0.00031   0.00029  -0.00106  -0.00295
  85       10F-3        0.00077  -0.00031   0.00106  -0.00029   0.00173
  86 3   H  1S          0.00426  -0.00302   0.00302   0.00302   0.01561
  87        2S         -0.03128   0.01265  -0.01265  -0.01265   0.00949
  88        3S         -0.99582   0.32211  -0.32211  -0.32211   2.72864
  89        4S         -1.42585   2.18095  -2.18095  -2.18095   1.08656
  90        5PX         0.00160   0.00234  -0.00245  -0.00234  -0.01056
  91        5PY         0.00160   0.00234  -0.00234  -0.00245  -0.00949
  92        5PZ        -0.00160  -0.00245   0.00234   0.00234   0.00949
  93        6PX        -0.01737  -0.02510   0.01673   0.02510   0.09319
  94        6PY        -0.01737  -0.02510   0.02510   0.01673   0.07301
  95        6PZ         0.01737   0.01673  -0.02510  -0.02510  -0.07301
  96        7PX        -0.27875   0.18132  -0.12612  -0.18132   0.32774
  97        7PY        -0.27875   0.18132  -0.18132  -0.12612   0.53965
  98        7PZ         0.27875  -0.12612   0.18132   0.18132  -0.53965
  99        8D 0        0.00000   0.00008   0.00004   0.00004  -0.00021
 100        8D+1       -0.00146   0.00178  -0.00178  -0.00218  -0.00222
 101        8D-1       -0.00146   0.00178  -0.00218  -0.00178   0.00434
 102        8D+2        0.00000  -0.00000  -0.00007   0.00007   0.00036
 103        8D-2        0.00146  -0.00218   0.00178   0.00178   0.00222
 104        9D 0       -0.00000  -0.00408  -0.00204  -0.00204   0.00731
 105        9D+1        0.02860  -0.00598   0.00598   0.01472  -0.04266
 106        9D-1        0.02860  -0.00598   0.01472   0.00598  -0.09187
 107        9D+2       -0.00000   0.00000   0.00353  -0.00353  -0.01265
 108        9D-2       -0.02860   0.01472  -0.00598  -0.00598   0.04266
 109       10F 0       -0.00097   0.00036   0.00047   0.00047   0.00351
 110       10F+1       -0.00059  -0.00118  -0.00022  -0.00060   0.00229
 111       10F-1       -0.00059  -0.00118  -0.00060  -0.00022   0.00350
 112       10F+2        0.00000  -0.00000  -0.00112   0.00112   0.00171
 113       10F-2        0.00259   0.00091  -0.00091  -0.00091  -0.00640
 114       10F+3        0.00077  -0.00031   0.00029  -0.00106  -0.00295
 115       10F-3       -0.00077   0.00031   0.00106  -0.00029   0.00173
 116 4   H  1S          0.00426   0.00302   0.00302  -0.00302   0.01561
 117        2S         -0.03128  -0.01265  -0.01265   0.01265   0.00949
 118        3S         -0.99582  -0.32211  -0.32211   0.32211   2.72864
 119        4S         -1.42585  -2.18095  -2.18095   2.18095   1.08656
 120        5PX         0.00160  -0.00234  -0.00245   0.00234  -0.01056
 121        5PY        -0.00160   0.00234   0.00234  -0.00245   0.00949
 122        5PZ         0.00160  -0.00245  -0.00234   0.00234  -0.00949
 123        6PX        -0.01737   0.02510   0.01673  -0.02510   0.09319
 124        6PY         0.01737  -0.02510  -0.02510   0.01673  -0.07301
 125        6PZ        -0.01737   0.01673   0.02510  -0.02510   0.07301
 126        7PX        -0.27875  -0.18132  -0.12612   0.18132   0.32774
 127        7PY         0.27875   0.18132   0.18132  -0.12612  -0.53965
 128        7PZ        -0.27875  -0.12612  -0.18132   0.18132   0.53965
 129        8D 0        0.00000  -0.00008   0.00004  -0.00004  -0.00021
 130        8D+1        0.00146   0.00178   0.00178  -0.00218   0.00222
 131        8D-1       -0.00146  -0.00178  -0.00218   0.00178   0.00434
 132        8D+2        0.00000   0.00000  -0.00007  -0.00007   0.00036
 133        8D-2       -0.00146  -0.00218  -0.00178   0.00178  -0.00222
 134        9D 0       -0.00000   0.00408  -0.00204   0.00204   0.00731
 135        9D+1       -0.02860  -0.00598  -0.00598   0.01472   0.04266
 136        9D-1        0.02860   0.00598   0.01472  -0.00598  -0.09187
 137        9D+2       -0.00000  -0.00000   0.00353   0.00353  -0.01265
 138        9D-2        0.02860   0.01472   0.00598  -0.00598  -0.04266
 139       10F 0        0.00097   0.00036  -0.00047   0.00047  -0.00351
 140       10F+1       -0.00059   0.00118  -0.00022   0.00060   0.00229
 141       10F-1        0.00059  -0.00118   0.00060  -0.00022  -0.00350
 142       10F+2       -0.00000  -0.00000   0.00112   0.00112  -0.00171
 143       10F-2        0.00259  -0.00091  -0.00091   0.00091  -0.00640
 144       10F+3        0.00077   0.00031   0.00029   0.00106  -0.00295
 145       10F-3        0.00077   0.00031  -0.00106  -0.00029  -0.00173
 146 5   H  1S          0.00426   0.00302  -0.00302   0.00302  -0.01561
 147        2S         -0.03128  -0.01265   0.01265  -0.01265  -0.00949
 148        3S         -0.99582  -0.32211   0.32211  -0.32211  -2.72864
 149        4S         -1.42585  -2.18095   2.18095  -2.18095  -1.08656
 150        5PX        -0.00160   0.00234  -0.00245   0.00234  -0.01056
 151        5PY         0.00160  -0.00234   0.00234  -0.00245   0.00949
 152        5PZ         0.00160  -0.00245   0.00234  -0.00234   0.00949
 153        6PX         0.01737  -0.02510   0.01673  -0.02510   0.09319
 154        6PY        -0.01737   0.02510  -0.02510   0.01673  -0.07301
 155        6PZ        -0.01737   0.01673  -0.02510   0.02510  -0.07301
 156        7PX         0.27875   0.18132  -0.12612   0.18132   0.32774
 157        7PY        -0.27875  -0.18132   0.18132  -0.12612  -0.53965
 158        7PZ        -0.27875  -0.12612   0.18132  -0.18132  -0.53965
 159        8D 0        0.00000  -0.00008  -0.00004   0.00004   0.00021
 160        8D+1       -0.00146  -0.00178   0.00178  -0.00218   0.00222
 161        8D-1        0.00146   0.00178  -0.00218   0.00178   0.00434
 162        8D+2        0.00000   0.00000   0.00007   0.00007  -0.00036
 163        8D-2       -0.00146  -0.00218   0.00178  -0.00178   0.00222
 164        9D 0       -0.00000   0.00408   0.00204  -0.00204  -0.00731
 165        9D+1        0.02860   0.00598  -0.00598   0.01472   0.04266
 166        9D-1       -0.02860  -0.00598   0.01472  -0.00598  -0.09187
 167        9D+2       -0.00000  -0.00000  -0.00353  -0.00353   0.01265
 168        9D-2        0.02860   0.01472  -0.00598   0.00598   0.04266
 169       10F 0        0.00097   0.00036   0.00047  -0.00047   0.00351
 170       10F+1        0.00059  -0.00118  -0.00022   0.00060   0.00229
 171       10F-1       -0.00059   0.00118   0.00060  -0.00022  -0.00350
 172       10F+2       -0.00000  -0.00000  -0.00112  -0.00112   0.00171
 173       10F-2        0.00259  -0.00091   0.00091  -0.00091   0.00640
 174       10F+3       -0.00077  -0.00031   0.00029   0.00106  -0.00295
 175       10F-3       -0.00077  -0.00031  -0.00106  -0.00029  -0.00173
                          11        12        13        14        15
                        (T2)--V   (T2)--V   (A1)--V   (T2)--V   (T2)--V
     Eigenvalues --     0.27720   0.27720   0.48507   0.53268   0.53268
   1 1   C  1S          0.00000   0.00000   0.07375   0.00000   0.00000
   2        2S          0.00000   0.00000  -0.14013   0.00000   0.00000
   3        3S          0.00000   0.00000  -1.17267   0.00000   0.00000
   4        4S          0.00000   0.00000   6.76575   0.00000   0.00000
   5        5S          0.00000   0.00000  14.43240   0.00000   0.00000
   6        6PX         0.00000   0.00000   0.00000   0.00000  -0.10347
   7        6PY         0.00000  -0.03829   0.00000   0.00000   0.00000
   8        6PZ        -0.03829   0.00000   0.00000  -0.10347   0.00000
   9        7PX         0.00000   0.00000   0.00000   0.00000  -0.22746
  10        7PY         0.00000   0.01450   0.00000   0.00000   0.00000
  11        7PZ         0.01450   0.00000   0.00000  -0.22746   0.00000
  12        8PX         0.00000   0.00000   0.00000   0.00000   2.64688
  13        8PY         0.00000   2.63861   0.00000   0.00000   0.00000
  14        8PZ         2.63861   0.00000   0.00000   2.64688   0.00000
  15        9PX         0.00000   0.00000   0.00000   0.00000   3.56503
  16        9PY         0.00000   3.57283   0.00000   0.00000   0.00000
  17        9PZ         3.57283   0.00000   0.00000   3.56503   0.00000
  18       10D 0        0.00000   0.00000  -0.00000   0.00000   0.00000
  19       10D+1        0.00000  -0.01529   0.00000   0.00000   0.00000
  20       10D-1        0.00000   0.00000   0.00000   0.00000   0.01097
  21       10D+2        0.00000   0.00000  -0.00000   0.00000   0.00000
  22       10D-2       -0.01529   0.00000   0.00000   0.01097   0.00000
  23       11D 0        0.00000   0.00000   0.00000   0.00000   0.00000
  24       11D+1        0.00000   0.22134   0.00000   0.00000   0.00000
  25       11D-1        0.00000   0.00000   0.00000   0.00000   0.15296
  26       11D+2        0.00000   0.00000   0.00000   0.00000   0.00000
  27       11D-2        0.22134   0.00000   0.00000   0.15296   0.00000
  28       12D 0        0.00000   0.00000  -0.00000   0.00000   0.00000
  29       12D+1        0.00000   1.15563   0.00000   0.00000   0.00000
  30       12D-1        0.00000   0.00000   0.00000   0.00000   1.56388
  31       12D+2        0.00000   0.00000  -0.00000   0.00000   0.00000
  32       12D-2        1.15563   0.00000   0.00000   1.56388   0.00000
  33       13F 0       -0.01090   0.00000   0.00000  -0.00340   0.00000
  34       13F+1        0.00000   0.00000   0.00000   0.00000   0.00208
  35       13F-1        0.00000   0.00667   0.00000   0.00000   0.00000
  36       13F+2       -0.00000   0.00000   0.00000  -0.00000   0.00000
  37       13F-2        0.00000   0.00000   0.02356   0.00000   0.00000
  38       13F+3        0.00000   0.00000   0.00000   0.00000  -0.00269
  39       13F-3        0.00000   0.00862   0.00000   0.00000   0.00000
  40       14F 0       -0.06151   0.00000   0.00000  -0.02854   0.00000
  41       14F+1        0.00000   0.00000   0.00000   0.00000   0.01748
  42       14F-1        0.00000   0.03767   0.00000   0.00000   0.00000
  43       14F+2       -0.00000   0.00000   0.00000  -0.00000   0.00000
  44       14F-2        0.00000   0.00000   0.50153   0.00000   0.00000
  45       14F+3        0.00000   0.00000   0.00000   0.00000  -0.02256
  46       14F-3        0.00000   0.04863   0.00000   0.00000   0.00000
  47       15G 0        0.00000   0.00000  -0.03459   0.00000   0.00000
  48       15G+1        0.00000  -0.00757   0.00000   0.00000   0.00000
  49       15G-1        0.00000   0.00000   0.00000   0.00000  -0.00718
  50       15G+2        0.00000   0.00000   0.00000   0.00000   0.00000
  51       15G-2        0.02140   0.00000   0.00000   0.02032   0.00000
  52       15G+3        0.00000  -0.02002   0.00000   0.00000   0.00000
  53       15G-3        0.00000   0.00000   0.00000   0.00000   0.01900
  54       15G+4        0.00000   0.00000  -0.02923   0.00000   0.00000
  55       15G-4       -0.00000   0.00000   0.00000  -0.00000   0.00000
  56 2   H  1S         -0.01561  -0.01561   0.01643   0.03011   0.03011
  57        2S         -0.00949  -0.00949  -0.10515   0.04538   0.04538
  58        3S         -2.72864  -2.72864  -3.81932  -2.08023  -2.08023
  59        4S         -1.08656  -1.08656  -2.12543  -2.24128  -2.24128
  60        5PX        -0.00949  -0.00949  -0.00554   0.00592  -0.00243
  61        5PY        -0.00949  -0.01056  -0.00554   0.00592   0.00592
  62        5PZ        -0.01056  -0.00949  -0.00554  -0.00243   0.00592
  63        6PX         0.07301   0.07301   0.12481   0.01119   0.01738
  64        6PY         0.07301   0.09319   0.12481   0.01119   0.01119
  65        6PZ         0.09319   0.07301   0.12481   0.01738   0.01119
  66        7PX         0.53965   0.53965   0.98215   0.81106   0.47476
  67        7PY         0.53965   0.32774   0.98215   0.81106   0.81106
  68        7PZ         0.32774   0.53965   0.98215   0.47476   0.81106
  69        8D 0       -0.00042   0.00021   0.00000   0.00097  -0.00049
  70        8D+1       -0.00222   0.00434   0.00121   0.00227   0.00227
  71        8D-1       -0.00222  -0.00222   0.00121   0.00227   0.00588
  72        8D+2        0.00000   0.00036   0.00000   0.00000   0.00084
  73        8D-2        0.00434  -0.00222   0.00121   0.00588   0.00227
  74        9D 0        0.01461  -0.00731  -0.00000   0.02463  -0.01231
  75        9D+1       -0.04266  -0.09187  -0.10149  -0.03646  -0.03646
  76        9D-1       -0.04266  -0.04266  -0.10149  -0.03646  -0.08467
  77        9D+2       -0.00000  -0.01265  -0.00000  -0.00000   0.02133
  78        9D-2       -0.09187  -0.04266  -0.10149  -0.08467  -0.03646
  79       10F 0       -0.00373  -0.00351  -0.00423  -0.00348  -0.00056
  80       10F+1        0.00080   0.00350   0.00259  -0.00284   0.00213
  81       10F-1        0.00080   0.00229   0.00259  -0.00284   0.00353
  82       10F+2        0.00000   0.00171   0.00000   0.00000  -0.00403
  83       10F-2        0.00640   0.00640   0.00820   0.00148   0.00148
  84       10F+3       -0.00382  -0.00173  -0.00335  -0.00291  -0.00275
  85       10F-3        0.00382   0.00295   0.00335   0.00291  -0.00203
  86 3   H  1S         -0.01561   0.01561   0.01643   0.03011  -0.03011
  87        2S         -0.00949   0.00949  -0.10515   0.04538  -0.04538
  88        3S         -2.72864   2.72864  -3.81932  -2.08023   2.08023
  89        4S         -1.08656   1.08656  -2.12543  -2.24128   2.24128
  90        5PX         0.00949  -0.00949   0.00554  -0.00592  -0.00243
  91        5PY         0.00949  -0.01056   0.00554  -0.00592   0.00592
  92        5PZ        -0.01056   0.00949  -0.00554  -0.00243  -0.00592
  93        6PX        -0.07301   0.07301  -0.12481  -0.01119   0.01738
  94        6PY        -0.07301   0.09319  -0.12481  -0.01119   0.01119
  95        6PZ         0.09319  -0.07301   0.12481   0.01738  -0.01119
  96        7PX        -0.53965   0.53965  -0.98215  -0.81106   0.47476
  97        7PY        -0.53965   0.32774  -0.98215  -0.81106   0.81106
  98        7PZ         0.32774  -0.53965   0.98215   0.47476  -0.81106
  99        8D 0       -0.00042  -0.00021   0.00000   0.00097   0.00049
 100        8D+1        0.00222   0.00434  -0.00121  -0.00227   0.00227
 101        8D-1        0.00222  -0.00222  -0.00121  -0.00227   0.00588
 102        8D+2        0.00000  -0.00036   0.00000   0.00000  -0.00084
 103        8D-2        0.00434   0.00222   0.00121   0.00588  -0.00227
 104        9D 0        0.01461   0.00731  -0.00000   0.02463   0.01231
 105        9D+1        0.04266  -0.09187   0.10149   0.03646  -0.03646
 106        9D-1        0.04266  -0.04266   0.10149   0.03646  -0.08467
 107        9D+2       -0.00000   0.01265  -0.00000  -0.00000  -0.02133
 108        9D-2       -0.09187   0.04266  -0.10149  -0.08467   0.03646
 109       10F 0       -0.00373   0.00351  -0.00423  -0.00348   0.00056
 110       10F+1       -0.00080   0.00350  -0.00259   0.00284   0.00213
 111       10F-1       -0.00080   0.00229  -0.00259   0.00284   0.00353
 112       10F+2        0.00000  -0.00171   0.00000   0.00000   0.00403
 113       10F-2        0.00640  -0.00640   0.00820   0.00148  -0.00148
 114       10F+3        0.00382  -0.00173   0.00335   0.00291  -0.00275
 115       10F-3       -0.00382   0.00295  -0.00335  -0.00291  -0.00203
 116 4   H  1S          0.01561  -0.01561   0.01643  -0.03011  -0.03011
 117        2S          0.00949  -0.00949  -0.10515  -0.04538  -0.04538
 118        3S          2.72864  -2.72864  -3.81932   2.08023   2.08023
 119        4S          1.08656  -1.08656  -2.12543   2.24128   2.24128
 120        5PX        -0.00949   0.00949   0.00554   0.00592  -0.00243
 121        5PY         0.00949  -0.01056  -0.00554  -0.00592  -0.00592
 122        5PZ        -0.01056   0.00949   0.00554  -0.00243   0.00592
 123        6PX         0.07301  -0.07301  -0.12481   0.01119   0.01738
 124        6PY        -0.07301   0.09319   0.12481  -0.01119  -0.01119
 125        6PZ         0.09319  -0.07301  -0.12481   0.01738   0.01119
 126        7PX         0.53965  -0.53965  -0.98215   0.81106   0.47476
 127        7PY        -0.53965   0.32774   0.98215  -0.81106  -0.81106
 128        7PZ         0.32774  -0.53965  -0.98215   0.47476   0.81106
 129        8D 0        0.00042   0.00021   0.00000  -0.00097   0.00049
 130        8D+1        0.00222   0.00434   0.00121  -0.00227  -0.00227
 131        8D-1       -0.00222   0.00222  -0.00121   0.00227   0.00588
 132        8D+2       -0.00000   0.00036   0.00000  -0.00000  -0.00084
 133        8D-2        0.00434   0.00222  -0.00121   0.00588   0.00227
 134        9D 0       -0.01461  -0.00731  -0.00000  -0.02463   0.01231
 135        9D+1        0.04266  -0.09187  -0.10149   0.03646   0.03646
 136        9D-1       -0.04266   0.04266   0.10149  -0.03646  -0.08467
 137        9D+2        0.00000  -0.01265  -0.00000   0.00000  -0.02133
 138        9D-2       -0.09187   0.04266   0.10149  -0.08467  -0.03646
 139       10F 0       -0.00373   0.00351   0.00423  -0.00348  -0.00056
 140       10F+1        0.00080  -0.00350  -0.00259  -0.00284   0.00213
 141       10F-1       -0.00080   0.00229   0.00259   0.00284  -0.00353
 142       10F+2        0.00000  -0.00171  -0.00000   0.00000  -0.00403
 143       10F-2       -0.00640   0.00640   0.00820  -0.00148  -0.00148
 144       10F+3       -0.00382   0.00173   0.00335  -0.00291  -0.00275
 145       10F-3       -0.00382   0.00295   0.00335  -0.00291   0.00203
 146 5   H  1S          0.01561   0.01561   0.01643  -0.03011   0.03011
 147        2S          0.00949   0.00949  -0.10515  -0.04538   0.04538
 148        3S          2.72864   2.72864  -3.81932   2.08023  -2.08023
 149        4S          1.08656   1.08656  -2.12543   2.24128  -2.24128
 150        5PX         0.00949   0.00949  -0.00554  -0.00592  -0.00243
 151        5PY        -0.00949  -0.01056   0.00554   0.00592  -0.00592
 152        5PZ        -0.01056  -0.00949   0.00554  -0.00243  -0.00592
 153        6PX        -0.07301  -0.07301   0.12481  -0.01119   0.01738
 154        6PY         0.07301   0.09319  -0.12481   0.01119  -0.01119
 155        6PZ         0.09319   0.07301  -0.12481   0.01738  -0.01119
 156        7PX        -0.53965  -0.53965   0.98215  -0.81106   0.47476
 157        7PY         0.53965   0.32774  -0.98215   0.81106  -0.81106
 158        7PZ         0.32774   0.53965  -0.98215   0.47476  -0.81106
 159        8D 0        0.00042  -0.00021   0.00000  -0.00097  -0.00049
 160        8D+1       -0.00222   0.00434  -0.00121   0.00227  -0.00227
 161        8D-1        0.00222   0.00222   0.00121  -0.00227   0.00588
 162        8D+2       -0.00000  -0.00036   0.00000  -0.00000   0.00084
 163        8D-2        0.00434  -0.00222  -0.00121   0.00588  -0.00227
 164        9D 0       -0.01461   0.00731  -0.00000  -0.02463  -0.01231
 165        9D+1       -0.04266  -0.09187   0.10149  -0.03646   0.03646
 166        9D-1        0.04266   0.04266  -0.10149   0.03646  -0.08467
 167        9D+2        0.00000   0.01265  -0.00000   0.00000   0.02133
 168        9D-2       -0.09187  -0.04266   0.10149  -0.08467   0.03646
 169       10F 0       -0.00373  -0.00351   0.00423  -0.00348   0.00056
 170       10F+1       -0.00080  -0.00350   0.00259   0.00284   0.00213
 171       10F-1        0.00080   0.00229  -0.00259  -0.00284  -0.00353
 172       10F+2        0.00000   0.00171  -0.00000   0.00000   0.00403
 173       10F-2       -0.00640  -0.00640   0.00820  -0.00148   0.00148
 174       10F+3        0.00382   0.00173  -0.00335   0.00291  -0.00275
 175       10F-3        0.00382   0.00295  -0.00335   0.00291   0.00203
                          16        17        18        19        20
                        (T2)--V   (E)--V    (E)--V    (A1)--V   (T1)--V
     Eigenvalues --     0.53268   0.54000   0.54000   0.62845   0.82759
   1 1   C  1S          0.00000   0.00000  -0.00000  -0.03875   0.00000
   2        2S          0.00000   0.00000   0.00000   0.06257   0.00000
   3        3S          0.00000   0.00000  -0.00000  -0.57890   0.00000
   4        4S          0.00000  -0.00000   0.00000   3.14601   0.00000
   5        5S          0.00000  -0.00000  -0.00000   6.82976   0.00000
   6        6PX         0.00000   0.00000   0.00000   0.00000   0.00000
   7        6PY        -0.10347   0.00000   0.00000   0.00000   0.00000
   8        6PZ         0.00000   0.00000   0.00000   0.00000   0.00000
   9        7PX         0.00000   0.00000   0.00000   0.00000   0.00000
  10        7PY        -0.22746   0.00000   0.00000   0.00000   0.00000
  11        7PZ         0.00000   0.00000   0.00000   0.00000  -0.00000
  12        8PX         0.00000   0.00000   0.00000   0.00000   0.00000
  13        8PY         2.64688   0.00000   0.00000   0.00000   0.00000
  14        8PZ         0.00000   0.00000   0.00000   0.00000   0.00000
  15        9PX         0.00000   0.00000   0.00000   0.00000   0.00000
  16        9PY         3.56503   0.00000   0.00000   0.00000   0.00000
  17        9PZ         0.00000   0.00000   0.00000   0.00000   0.00000
  18       10D 0        0.00000  -0.02354  -0.02933  -0.00000   0.00000
  19       10D+1        0.01097   0.00000   0.00000   0.00000   0.00000
  20       10D-1        0.00000   0.00000   0.00000   0.00000   0.00000
  21       10D+2        0.00000  -0.02933   0.02354  -0.00000   0.00000
  22       10D-2        0.00000   0.00000   0.00000   0.00000  -0.00000
  23       11D 0        0.00000   0.06086   0.07583  -0.00000   0.00000
  24       11D+1        0.15296   0.00000   0.00000   0.00000   0.00000
  25       11D-1        0.00000   0.00000   0.00000   0.00000   0.00000
  26       11D+2        0.00000   0.07583  -0.06086   0.00000   0.00000
  27       11D-2        0.00000   0.00000   0.00000   0.00000   0.00000
  28       12D 0        0.00000  -0.02310  -0.02878  -0.00000   0.00000
  29       12D+1        1.56388   0.00000   0.00000   0.00000   0.00000
  30       12D-1        0.00000   0.00000   0.00000   0.00000   0.00000
  31       12D+2        0.00000  -0.02878   0.02310   0.00000   0.00000
  32       12D-2        0.00000   0.00000   0.00000   0.00000   0.00000
  33       13F 0        0.00000   0.00000   0.00000   0.00000   0.00000
  34       13F+1        0.00000   0.00000   0.00000   0.00000   0.00000
  35       13F-1        0.00208   0.00000   0.00000   0.00000   0.00000
  36       13F+2        0.00000   0.00000   0.00000   0.00000   0.00625
  37       13F-2        0.00000  -0.00000   0.00000   0.01479   0.00000
  38       13F+3        0.00000   0.00000   0.00000   0.00000   0.00000
  39       13F-3        0.00269   0.00000   0.00000   0.00000   0.00000
  40       14F 0        0.00000   0.00000   0.00000   0.00000  -0.00000
  41       14F+1        0.00000   0.00000   0.00000   0.00000   0.00000
  42       14F-1        0.01748   0.00000   0.00000   0.00000   0.00000
  43       14F+2        0.00000   0.00000   0.00000   0.00000  -0.55378
  44       14F-2        0.00000  -0.00000   0.00000   0.40186   0.00000
  45       14F+3        0.00000   0.00000   0.00000   0.00000   0.00000
  46       14F-3        0.02256   0.00000   0.00000   0.00000   0.00000
  47       15G 0        0.00000   0.00120   0.00150  -0.03439   0.00000
  48       15G+1       -0.00718   0.00000   0.00000   0.00000   0.00000
  49       15G-1        0.00000   0.00000   0.00000   0.00000   0.00000
  50       15G+2        0.00000  -0.00232   0.00186   0.00000   0.00000
  51       15G-2        0.00000   0.00000   0.00000   0.00000   0.00000
  52       15G+3       -0.01900   0.00000   0.00000   0.00000   0.00000
  53       15G-3        0.00000   0.00000   0.00000   0.00000   0.00000
  54       15G+4        0.00000  -0.00142  -0.00177  -0.02906   0.00000
  55       15G-4        0.00000   0.00000   0.00000   0.00000  -0.06510
  56 2   H  1S          0.03011  -0.00000   0.00000  -0.02763   0.00000
  57        2S          0.04538   0.00000  -0.00000  -0.15079  -0.00000
  58        3S         -2.08023   0.00000   0.00000  -2.68072  -0.00000
  59        4S         -2.24128  -0.00000   0.00000  -0.46750  -0.00000
  60        5PX         0.00592  -0.00756   0.01945  -0.01764   0.01346
  61        5PY        -0.00243   0.02062  -0.00317  -0.01764  -0.01346
  62        5PZ         0.00592  -0.01306  -0.01627  -0.01764  -0.00000
  63        6PX         0.01119   0.02390  -0.06146   0.14009  -0.00810
  64        6PY         0.01738  -0.06517   0.01003   0.14009   0.00810
  65        6PZ         0.01119   0.04127   0.05142   0.14009   0.00000
  66        7PX         0.81106  -0.15406   0.39620   0.15252   0.74461
  67        7PY         0.47476   0.42015  -0.06468   0.15252  -0.74461
  68        7PZ         0.81106  -0.26609  -0.33152   0.15252   0.00000
  69        8D 0       -0.00049   0.00063   0.00079   0.00000   0.00000
  70        8D+1        0.00588  -0.00038   0.00006  -0.00511  -0.00066
  71        8D-1        0.00227   0.00014  -0.00036  -0.00511   0.00066
  72        8D+2       -0.00084   0.00079  -0.00063   0.00000   0.00767
  73        8D-2        0.00227   0.00024   0.00030  -0.00511  -0.00000
  74        9D 0       -0.01231   0.00948   0.01181  -0.00000  -0.00000
  75        9D+1       -0.08467   0.02134  -0.00329  -0.03212  -0.05269
  76        9D-1       -0.03646  -0.00782   0.02012  -0.03212   0.05269
  77        9D+2       -0.02133   0.01181  -0.00948   0.00000  -0.17938
  78        9D-2       -0.03646  -0.01351  -0.01684  -0.03212  -0.00000
  79       10F 0       -0.00056  -0.00138  -0.00172  -0.00279  -0.00000
  80       10F+1        0.00353  -0.00538  -0.00354   0.00171  -0.00099
  81       10F-1        0.00213  -0.00230  -0.00601   0.00171   0.00099
  82       10F+2        0.00403  -0.00621   0.00498  -0.00000   0.02489
  83       10F-2        0.00148  -0.00000  -0.00000   0.00021   0.00000
  84       10F+3        0.00203  -0.00518  -0.00014  -0.00220   0.01311
  85       10F-3        0.00275  -0.00098   0.00508   0.00220   0.01311
  86 3   H  1S         -0.03011  -0.00000   0.00000  -0.02763   0.00000
  87        2S         -0.04538   0.00000  -0.00000  -0.15079  -0.00000
  88        3S          2.08023   0.00000   0.00000  -2.68072  -0.00000
  89        4S          2.24128  -0.00000   0.00000  -0.46750  -0.00000
  90        5PX         0.00592   0.00756  -0.01945   0.01764  -0.01346
  91        5PY        -0.00243  -0.02062   0.00317   0.01764   0.01346
  92        5PZ        -0.00592  -0.01306  -0.01627  -0.01764  -0.00000
  93        6PX         0.01119  -0.02390   0.06146  -0.14009   0.00810
  94        6PY         0.01738   0.06517  -0.01003  -0.14009  -0.00810
  95        6PZ        -0.01119   0.04127   0.05142   0.14009   0.00000
  96        7PX         0.81106   0.15406  -0.39620  -0.15252  -0.74461
  97        7PY         0.47476  -0.42015   0.06468  -0.15252   0.74461
  98        7PZ        -0.81106  -0.26609  -0.33152   0.15252   0.00000
  99        8D 0        0.00049   0.00063   0.00079   0.00000   0.00000
 100        8D+1        0.00588   0.00038  -0.00006   0.00511   0.00066
 101        8D-1        0.00227  -0.00014   0.00036   0.00511  -0.00066
 102        8D+2        0.00084   0.00079  -0.00063   0.00000   0.00767
 103        8D-2       -0.00227   0.00024   0.00030  -0.00511  -0.00000
 104        9D 0        0.01231   0.00948   0.01181  -0.00000  -0.00000
 105        9D+1       -0.08467  -0.02134   0.00329   0.03212   0.05269
 106        9D-1       -0.03646   0.00782  -0.02012   0.03212  -0.05269
 107        9D+2        0.02133   0.01181  -0.00948   0.00000  -0.17938
 108        9D-2        0.03646  -0.01351  -0.01684  -0.03212  -0.00000
 109       10F 0        0.00056  -0.00138  -0.00172  -0.00279  -0.00000
 110       10F+1        0.00353   0.00538   0.00354  -0.00171   0.00099
 111       10F-1        0.00213   0.00230   0.00601  -0.00171  -0.00099
 112       10F+2       -0.00403  -0.00621   0.00498  -0.00000   0.02489
 113       10F-2       -0.00148  -0.00000  -0.00000   0.00021   0.00000
 114       10F+3        0.00203   0.00518   0.00014   0.00220  -0.01311
 115       10F-3        0.00275   0.00098  -0.00508  -0.00220  -0.01311
 116 4   H  1S          0.03011  -0.00000   0.00000  -0.02763  -0.00000
 117        2S          0.04538   0.00000  -0.00000  -0.15079   0.00000
 118        3S         -2.08023   0.00000   0.00000  -2.68072   0.00000
 119        4S         -2.24128  -0.00000   0.00000  -0.46750   0.00000
 120        5PX        -0.00592   0.00756  -0.01945   0.01764   0.01346
 121        5PY        -0.00243   0.02062  -0.00317  -0.01764   0.01346
 122        5PZ        -0.00592   0.01306   0.01627   0.01764  -0.00000
 123        6PX        -0.01119  -0.02390   0.06146  -0.14009  -0.00810
 124        6PY         0.01738  -0.06517   0.01003   0.14009  -0.00810
 125        6PZ        -0.01119  -0.04127  -0.05142  -0.14009   0.00000
 126        7PX        -0.81106   0.15406  -0.39620  -0.15252   0.74461
 127        7PY         0.47476   0.42015  -0.06468   0.15252   0.74461
 128        7PZ        -0.81106   0.26609   0.33152  -0.15252   0.00000
 129        8D 0       -0.00049   0.00063   0.00079   0.00000  -0.00000
 130        8D+1        0.00588  -0.00038   0.00006  -0.00511   0.00066
 131        8D-1       -0.00227  -0.00014   0.00036   0.00511   0.00066
 132        8D+2       -0.00084   0.00079  -0.00063   0.00000  -0.00767
 133        8D-2       -0.00227  -0.00024  -0.00030   0.00511  -0.00000
 134        9D 0       -0.01231   0.00948   0.01181  -0.00000   0.00000
 135        9D+1       -0.08467   0.02134  -0.00329  -0.03212   0.05269
 136        9D-1        0.03646   0.00782  -0.02012   0.03212   0.05269
 137        9D+2       -0.02133   0.01181  -0.00948   0.00000   0.17938
 138        9D-2        0.03646   0.01351   0.01684   0.03212  -0.00000
 139       10F 0        0.00056   0.00138   0.00172   0.00279  -0.00000
 140       10F+1       -0.00353   0.00538   0.00354  -0.00171  -0.00099
 141       10F-1        0.00213  -0.00230  -0.00601   0.00171  -0.00099
 142       10F+2       -0.00403   0.00621  -0.00498   0.00000   0.02489
 143       10F-2        0.00148  -0.00000  -0.00000   0.00021  -0.00000
 144       10F+3       -0.00203   0.00518   0.00014   0.00220   0.01311
 145       10F-3        0.00275  -0.00098   0.00508   0.00220  -0.01311
 146 5   H  1S         -0.03011  -0.00000   0.00000  -0.02763  -0.00000
 147        2S         -0.04538   0.00000  -0.00000  -0.15079   0.00000
 148        3S          2.08023   0.00000   0.00000  -2.68072   0.00000
 149        4S          2.24128  -0.00000   0.00000  -0.46750   0.00000
 150        5PX        -0.00592  -0.00756   0.01945  -0.01764  -0.01346
[...]
                         171       172       173       174       175
 171       10F-1        0.00000
 172       10F+2        0.00000   0.00000
 173       10F-2        0.00000  -0.00000   0.00000
 174       10F+3       -0.00000   0.00000   0.00000   0.00000
 175       10F-3       -0.00000   0.00000   0.00000   0.00000   0.00000
     Gross orbital populations:
                           1
   1 1   C  1S          1.23607
   2        2S          0.72917
   3        3S          0.28575
   4        4S          0.77066
   5        5S          0.19874
   6        6PX         0.09135
   7        6PY         0.09135
   8        6PZ         0.09135
   9        7PX         0.32362
  10        7PY         0.32362
  11        7PZ         0.32362
  12        8PX         0.45002
  13        8PY         0.45002
  14        8PZ         0.45002
  15        9PX         0.13057
  16        9PY         0.13057
  17        9PZ         0.13057
  18       10D 0        0.00000
  19       10D+1        0.00126
  20       10D-1        0.00126
  21       10D+2        0.00000
  22       10D-2        0.00126
  23       11D 0       -0.00000
  24       11D+1        0.00812
  25       11D-1        0.00812
  26       11D+2       -0.00000
  27       11D-2        0.00812
  28       12D 0       -0.00000
  29       12D+1        0.00947
  30       12D-1        0.00947
  31       12D+2       -0.00000
  32       12D-2        0.00947
  33       13F 0        0.00009
  34       13F+1        0.00004
  35       13F-1        0.00004
  36       13F+2        0.00000
  37       13F-2        0.00046
  38       13F+3        0.00006
  39       13F-3        0.00006
  40       14F 0       -0.00002
  41       14F+1       -0.00001
  42       14F-1       -0.00001
  43       14F+2        0.00000
  44       14F-2        0.00335
  45       14F+3       -0.00001
  46       14F-3       -0.00001
  47       15G 0        0.00008
  48       15G+1        0.00001
  49       15G-1        0.00001
  50       15G+2        0.00000
  51       15G-2        0.00011
  52       15G+3        0.00010
  53       15G-3        0.00010
  54       15G+4        0.00006
  55       15G-4       -0.00000
  56 2   H  1S          0.06927
  57        2S          0.31143
  58        3S          0.43959
  59        4S          0.07458
  60        5PX         0.00066
  61        5PY         0.00066
  62        5PZ         0.00066
  63        6PX         0.00472
  64        6PY         0.00472
  65        6PZ         0.00472
  66        7PX         0.00618
  67        7PY         0.00618
  68        7PZ         0.00618
  69        8D 0        0.00005
  70        8D+1        0.00011
  71        8D-1        0.00011
  72        8D+2        0.00005
  73        8D-2        0.00011
  74        9D 0        0.00064
  75        9D+1        0.00050
  76        9D-1        0.00050
  77        9D+2        0.00064
  78        9D-2        0.00050
  79       10F 0        0.00001
  80       10F+1        0.00003
  81       10F-1        0.00003
  82       10F+2        0.00005
  83       10F-2        0.00005
  84       10F+3        0.00003
  85       10F-3        0.00003
  86 3   H  1S          0.06927
  87        2S          0.31143
  88        3S          0.43959
  89        4S          0.07458
  90        5PX         0.00066
  91        5PY         0.00066
  92        5PZ         0.00066
  93        6PX         0.00472
  94        6PY         0.00472
  95        6PZ         0.00472
  96        7PX         0.00618
  97        7PY         0.00618
  98        7PZ         0.00618
  99        8D 0        0.00005
 100        8D+1        0.00011
 101        8D-1        0.00011
 102        8D+2        0.00005
 103        8D-2        0.00011
 104        9D 0        0.00064
 105        9D+1        0.00050
 106        9D-1        0.00050
 107        9D+2        0.00064
 108        9D-2        0.00050
 109       10F 0        0.00001
 110       10F+1        0.00003
 111       10F-1        0.00003
 112       10F+2        0.00005
 113       10F-2        0.00005
 114       10F+3        0.00003
 115       10F-3        0.00003
 116 4   H  1S          0.06927
 117        2S          0.31143
 118        3S          0.43959
 119        4S          0.07458
 120        5PX         0.00066
 121        5PY         0.00066
 122        5PZ         0.00066
 123        6PX         0.00472
 124        6PY         0.00472
 125        6PZ         0.00472
 126        7PX         0.00618
 127        7PY         0.00618
 128        7PZ         0.00618
 129        8D 0        0.00005
 130        8D+1        0.00011
 131        8D-1        0.00011
 132        8D+2        0.00005
 133        8D-2        0.00011
 134        9D 0        0.00064
 135        9D+1        0.00050
 136        9D-1        0.00050
 137        9D+2        0.00064
 138        9D-2        0.00050
 139       10F 0        0.00001
 140       10F+1        0.00003
 141       10F-1        0.00003
 142       10F+2        0.00005
 143       10F-2        0.00005
 144       10F+3        0.00003
 145       10F-3        0.00003
 146 5   H  1S          0.06927
 147        2S          0.31143
 148        3S          0.43959
 149        4S          0.07458
 150        5PX         0.00066
 151        5PY         0.00066
 152        5PZ         0.00066
 153        6PX         0.00472
 154        6PY         0.00472
 155        6PZ         0.00472
 156        7PX         0.00618
 157        7PY         0.00618
 158        7PZ         0.00618
 159        8D 0        0.00005
 160        8D+1        0.00011
 161        8D-1        0.00011
 162        8D+2        0.00005
 163        8D-2        0.00011
 164        9D 0        0.00064
 165        9D+1        0.00050
 166        9D-1        0.00050
 167        9D+2        0.00064
 168        9D-2        0.00050
 169       10F 0        0.00001
 170       10F+1        0.00003
 171       10F-1        0.00003
 172       10F+2        0.00005
 173       10F-2        0.00005
 174       10F+3        0.00003
 175       10F-3        0.00003
          Condensed to atoms (all electrons):
              1          2          3          4          5
     1  C    4.593410   0.418682   0.418682   0.418682   0.418682
     2  H    0.418682   0.596750  -0.027489  -0.027489  -0.027489
     3  H    0.418682  -0.027489   0.596750  -0.027489  -0.027489
     4  H    0.418682  -0.027489  -0.027489   0.596750  -0.027489
     5  H    0.418682  -0.027489  -0.027489  -0.027489   0.596750
 Mulliken atomic charges:
              1
     1  C   -0.268139
     2  H    0.067035
     3  H    0.067035
     4  H    0.067035
     5  H    0.067035
 Sum of Mulliken atomic charges =   0.00000
 Mulliken charges with hydrogens summed into heavy atoms:
              1
     1  C    0.000000
 Sum of Mulliken charges with hydrogens summed into heavy atoms =   0.00000
 APT atomic charges:
              1
     1  C    0.074677
     2  H   -0.018669
     3  H   -0.018669
     4  H   -0.018669
     5  H   -0.018669
 Sum of APT charges=   0.00000
 APT Atomic charges with hydrogens summed into heavy atoms:
              1
     1  C    0.000000
     2  H    0.000000
     3  H    0.000000
     4  H    0.000000
     5  H    0.000000
 Sum of APT charges=   0.00000
 Electronic spatial extent (au):  <R**2>=             35.4051
 Charge=             -0.0000 electrons
 Dipole moment (field-independent basis, Debye):
    X=              0.0000    Y=              0.0000    Z=              0.0000  Tot=              0.0000
 Quadrupole moment (field-independent basis, Debye-Ang):
   XX=             -8.3897   YY=             -8.3897   ZZ=             -8.3897
   XY=              0.0000   XZ=              0.0000   YZ=              0.0000
 Traceless Quadrupole moment (field-independent basis, Debye-Ang):
   XX=              0.0000   YY=             -0.0000   ZZ=              0.0000
   XY=              0.0000   XZ=              0.0000   YZ=              0.0000
 Octapole moment (field-independent basis, Debye-Ang**2):
  XXX=              0.0000  YYY=             -0.0000  ZZZ=             -0.0000  XYY=              0.0000
  XXY=             -0.0000  XXZ=              0.0000  XZZ=              0.0000  YZZ=              0.0000
  YYZ=              0.0000  XYZ=              0.6773
 Hexadecapole moment (field-independent basis, Debye-Ang**3):
 XXXX=            -16.4499 YYYY=            -16.4499 ZZZZ=            -16.4499 XXXY=              0.0000
 XXXZ=              0.0000 YYYX=              0.0000 YYYZ=             -0.0000 ZZZX=              0.0000
 ZZZY=             -0.0000 XXYY=             -4.9461 XXZZ=             -4.9461 YYZZ=             -4.9461
 XXYZ=              0.0000 YYXZ=             -0.0000 ZZXY=              0.0000
 N-N= 1.354705186665D+01 E-N=-1.201648084094D+02  KE= 4.021597679018D+01
 Symmetry A    KE= 3.446956619782D+01
 Symmetry B1   KE= 1.915470197452D+00
 Symmetry B2   KE= 1.915470197452D+00
 Symmetry B3   KE= 1.915470197452D+00
 Orbital energies and kinetic energies (alpha):
                                 1                 2
   1         (A1)--O         -11.201817         16.019011
   2         (A1)--O          -0.946040          1.215772
   3         (T2)--O          -0.547027          0.957735
   4         (T2)--O          -0.547027          0.957735
   5         (T2)--O          -0.547027          0.957735
   6         (A1)--V           0.115679          0.291135
   7         (T2)--V           0.200086          0.345596
   8         (T2)--V           0.200086          0.345596
   9         (T2)--V           0.200086          0.345596
  10         (T2)--V           0.276908          0.393827
  11         (T2)--V           0.276908          0.393827
  12         (T2)--V           0.276908          0.393827
  13         (A1)--V           0.485756          1.001095
  14         (T2)--V           0.536027          1.096377
  15         (T2)--V           0.536027          1.096377
  16         (T2)--V           0.536027          1.096377
  17         (E)--V            0.541835          0.714745
  18         (E)--V            0.541835          0.714745
  19         (A1)--V           0.633610          0.970331
  20         (T1)--V           0.829482          0.909796
  21         (T1)--V           0.829482          0.909796
  22         (T1)--V           0.829482          0.909796
  23         (T2)--V           0.832252          1.053361
  24         (T2)--V           0.832252          1.053361
  25         (T2)--V           0.832252          1.053361
  26         (T2)--V           0.951837          1.206637
  27         (T2)--V           0.951837          1.206637
  28         (T2)--V           0.951837          1.206637
  29         (T2)--V           1.152284          1.495337
  30         (T2)--V           1.152284          1.495337
  31         (T2)--V           1.152284          1.495337
  32         (A1)--V           1.186941          1.941690
  33         (E)--V            1.210104          1.279870
  34         (E)--V            1.210104          1.279870
  35         (T2)--V           1.492936          2.035916
  36         (T2)--V           1.492936          2.035916
  37         (T2)--V           1.492936          2.035916
  38         (A1)--V           1.534100          2.158220
  39         (E)--V            1.918619          2.391985
  40         (E)--V            1.918619          2.391985
  41         (T2)--V           1.953784          2.787943
  42         (T2)--V           1.953784          2.787943
  43         (T2)--V           1.953784          2.787943
  44         (T1)--V           2.040903          2.276191
  45         (T1)--V           2.040903          2.276191
  46         (T1)--V           2.040903          2.276191
  47         (T2)--V           2.160291          2.555040
  48         (T2)--V           2.160291          2.555040
  49         (T2)--V           2.160291          2.555040
  50         (A1)--V           2.340374          3.341257
  51         (T1)--V           2.360903          2.514789
  52         (T1)--V           2.360903          2.514789
  53         (T1)--V           2.360903          2.514789
  54         (E)--V            2.490459          2.611459
  55         (E)--V            2.490459          2.611459
  56         (T2)--V           2.596115          2.992730
  57         (T2)--V           2.596115          2.992730
  58         (T2)--V           2.596115          2.992730
  59         (T2)--V           2.651564          2.883016
  60         (T2)--V           2.651564          2.883016
  61         (T2)--V           2.651564          2.883016
  62         (E)--V            2.756919          2.982725
  63         (E)--V            2.756919          2.982725
  64         (A1)--V           2.804534          3.434816
  65         (T1)--V           3.125310          3.294302
  66         (T1)--V           3.125310          3.294302
  67         (T1)--V           3.125310          3.294302
  68         (T2)--V           3.194557          3.393148
  69         (T2)--V           3.194557          3.393148
  70         (T2)--V           3.194557          3.393148
  71         (A1)--V           3.366208          3.972416
  72         (T2)--V           3.440758          3.779915
  73         (T2)--V           3.440758          3.779915
  74         (T2)--V           3.440758          3.779915
  75         (T1)--V           3.463854          3.669156
  76         (T1)--V           3.463854          3.669156
  77         (T1)--V           3.463854          3.669156
  78         (T2)--V           3.674765          4.458246
  79         (T2)--V           3.674765          4.458246
  80         (T2)--V           3.674765          4.458246
  81         (A1)--V           4.032509          5.542205
  82         (T2)--V           4.136530          4.966642
  83         (T2)--V           4.136530          4.966642
  84         (T2)--V           4.136530          4.966642
  85         (E)--V            4.144640          4.677865
  86         (E)--V            4.144640          4.677865
  87         (E)--V            5.619998          6.151364
  88         (E)--V            5.619998          6.151364
  89         (T2)--V           5.639186          7.122173
  90         (T2)--V           5.639186          7.122173
  91         (T2)--V           5.639186          7.122173
  92         (T1)--V           5.723818          6.334736
  93         (T1)--V           5.723818          6.334736
  94         (T1)--V           5.723818          6.334736
  95         (A2)--V           6.217901          6.426881
  96         (T2)--V           6.254896          7.159613
  97         (T2)--V           6.254896          7.159613
  98         (T2)--V           6.254896          7.159613
  99         (T1)--V           6.338672          6.597974
 100         (T1)--V           6.338672          6.597974
 101         (T1)--V           6.338672          6.597974
 102         (A1)--V           6.361578          7.144653
 103         (A1)--V           6.392659          7.224197
 104         (T2)--V           6.420980          7.298221
 105         (T2)--V           6.420980          7.298221
 106         (T2)--V           6.420980          7.298221
 107         (T1)--V           6.493720          7.028174
 108         (T1)--V           6.493720          7.028174
 109         (T1)--V           6.493720          7.028174
 110         (T2)--V           6.562346          7.425695
 111         (T2)--V           6.562346          7.425695
 112         (T2)--V           6.562346          7.425695
 113         (E)--V            6.996160          8.217039
 114         (E)--V            6.996160          8.217039
 115         (A1)--V           7.056085          7.619835
 116         (T2)--V           7.133755          8.793156
 117         (T2)--V           7.133755          8.793156
 118         (T2)--V           7.133755          8.793156
 119         (T1)--V           7.591613          8.005494
 120         (T1)--V           7.591613          8.005494
 121         (T1)--V           7.591613          8.005494
 122         (E)--V            7.644483          8.373052
 123         (E)--V            7.644483          8.373052
 124         (T2)--V           7.684380          8.478566
 125         (T2)--V           7.684380          8.478566
 126         (T2)--V           7.684380          8.478566
 127         (T2)--V           7.992723          8.724706
 128         (T2)--V           7.992723          8.724706
 129         (T2)--V           7.992723          8.724706
 130         (E)--V            8.007671          8.668833
 131         (E)--V            8.007671          8.668833
 132         (T1)--V           8.041123          8.576963
 133         (T1)--V           8.041123          8.576963
 134         (T1)--V           8.041123          8.576963
 135         (A1)--V           8.279881          9.450961
 136         (T2)--V           8.316051          8.809447
 137         (T2)--V           8.316051          8.809447
 138         (T2)--V           8.316051          8.809447
 139         (E)--V            8.657295          9.171975
 140         (E)--V            8.657295          9.171975
 141         (A1)--V           8.738420         10.417555
 142         (T1)--V           8.750687          9.285196
 143         (T1)--V           8.750687          9.285196
 144         (T1)--V           8.750687          9.285196
 145         (T2)--V           8.757627          9.296933
 146         (T2)--V           8.757627          9.296933
 147         (T2)--V           8.757627          9.296933
 148         (T2)--V           8.930689         10.422790
 149         (T2)--V           8.930689         10.422790
 150         (T2)--V           8.930689         10.422790
 151         (T1)--V           9.350755          9.930224
 152         (T1)--V           9.350755          9.930224
 153         (T1)--V           9.350755          9.930224
 154         (T2)--V           9.422589         10.438733
 155         (T2)--V           9.422589         10.438733
 156         (T2)--V           9.422589         10.438733
 157         (E)--V            9.836700         10.382491
 158         (E)--V            9.836700         10.382491
 159         (E)--V           10.221851         10.808531
 160         (E)--V           10.221851         10.808531
 161         (T2)--V          10.328549         11.998149
 162         (T2)--V          10.328549         11.998149
 163         (T2)--V          10.328549         11.998149
 164         (T2)--V          10.531129         11.526994
 165         (T2)--V          10.531129         11.526994
 166         (T2)--V          10.531129         11.526994
 167         (A1)--V          10.568539         13.337624
 168         (T1)--V          10.974796         11.857906
 169         (T1)--V          10.974796         11.857906
 170         (T1)--V          10.974796         11.857906
 171         (A1)--V          11.122636         12.638403
 172         (T2)--V          12.909492         15.813261
 173         (T2)--V          12.909492         15.813261
 174         (T2)--V          12.909492         15.813261
 175         (A1)--V          27.730627         59.214830
 Total kinetic energy from orbitals= 4.021597679018D+01
  Exact polarizability:  15.114   0.000  15.114   0.000   0.000  15.114
 Approx polarizability:  12.666  -0.000  12.666  -0.000   0.000  12.666
 No NMR shielding tensors so no spin-rotation constants.
 Leave Link  601 at Sun Aug 18 13:12:02 2024, MaxMem=   13107200 cpu:       1.0
 (Enter /programs/64bit/g09/g09-gfortran/bin/l701.exe)
 Compute integral second derivatives.
 ... and contract with generalized density number  0.
 Insufficient memory in PRISM at phase 22 IEnd=     9338601 limit=     7350112.
 Error termination via Lnk1e in /programs/64bit/g09/g09-gfortran/bin/l701.exe at Sun Aug 18 13:12:03 2024.
 Job cpu time:  0 days  0 hours  9 minutes 50.2 seconds.
 File lengths (MBytes):  RWF=     24 Int=      0 D2E=      0 Chk=      3 Scr=      1
