
 Primary working directories    : /data/scratch
 Secondary working directories  : /data/scratch
 Wavefunction directory         : /home/ospite/wfu/
 Main file repository           : /data/scratch/

 ARCHNAME  : Linux/x86_64
 FC        : /usr/bin/gfortran
 FCVERSION : 4.8.5
 BLASLIB   : 
 id        : polimi

 Nodes     nprocs
 molmod       1

 Using default tuning parameters: mindgm=1; mindgv=20; mindgc=4; mindgr=1; noblas=0; mincuda=1000; minvec=7
 default implementation of scratch files=df  

 ***,hydrogen_mol
 
 basis=6-31G(d,p)
 geometry={angstrom
 H1
 H2, H1, d
 }
 
 d=0.74
 
 {hf;wf,spin=0,charge=0;}
                                                                                 !{dft,b3lyp} !use b3lyp dft functional
 optg                                                                            !perform optimization
 {frequencies,analytic
 thermo}
 put,molden,molpro.molden.h2

 Variables initialized (661), CPU time= 0.01 sec
 Commands  initialized (458), CPU time= 0.05 sec, 486 directives.
 Default parameters read. Elapsed time= 0.22 sec

 Checking input...
 Passed
1


                                         ***  PROGRAM SYSTEM MOLPRO  ***
                         Copyright, University College Cardiff Consultants Limited, 2008

                                    Version 2010.1 linked Mar  6 2018 16:01:50


 **********************************************************************************************************************************
 LABEL *   hydrogen_mol                                                                  
 Linux-3.10.0-1160.108.1.el7.x86_64/molmod(x86_64) 64 bit serial version                 DATE: 14-Aug-24          TIME: 00:38:23  
 **********************************************************************************************************************************

 SHA1:             d90fb18d49a3be29a79769f900c595ef3b8176e2
 **********************************************************************************************************************************

 Variable memory set to    8000000 words,  buffer space   230000 words

 SETTING BASIS          =    6-31G(D,P)
 SETTING D              =         0.74000000                                  


 Recomputing integrals since basis changed


 Using spherical harmonics

 Library entry H      S 6-31G                selected for orbital group  1
 Library entry H      P 6-31G**              selected for orbital group  1

1PROGRAM * SEWARD (Integral evaluation for generally contracted gaussian basis sets)     Author: Roland Lindh, 1990

 Geometry written to block  1 of record 700

 Orientation using atomic masses  
 Molecule type: Linear
 Symmetry elements: X,Y,Z
 Rotational constants:    1831.2560048   1831.2560048      0.0000000 GHz  (calculated with average atomic masses)

 Point group  D2h 



 ATOMIC COORDINATES

 NR  ATOM    CHARGE       X              Y              Z

   1  H1      1.00    0.000000000    0.000000000   -0.699198669
   2  H2      1.00    0.000000000    0.000000000    0.699198669

 Bond lengths in Bohr (Angstrom)

 1-2  1.398397337
     ( 0.740000000)

 NUCLEAR CHARGE:                    2
 NUMBER OF PRIMITIVE AOS:          14
 NUMBER OF SYMMETRY AOS:           14
 NUMBER OF CONTRACTIONS:           10   (   3Ag  +   1B3u +   1B2u +   0B1g +   3B1u +   1B2g +   1B3g +   0Au  )
 NUMBER OF CORE ORBITALS:           0   (   0Ag  +   0B3u +   0B2u +   0B1g +   0B1u +   0B2g +   0B3g +   0Au  )
 NUMBER OF VALENCE ORBITALS:        2   (   1Ag  +   0B3u +   0B2u +   0B1g +   1B1u +   0B2g +   0B3g +   0Au  )


 NUCLEAR REPULSION ENERGY    0.71510434


 Eigenvalues of metric

         1 0.398E+00 0.135E+01 0.296E+01
         2 0.134E+01
         3 0.134E+01
         5 0.962E-01 0.105E+00 0.110E+01
         6 0.659E+00
         7 0.659E+00


 Contracted 2-electron integrals neglected if value below      1.0D-11
 AO integral compression algorithm  1   Integral accuracy      1.0D-11

     0.262 MB (compressed) written to integral file (100.0%)


 NUMBER OF SORTED TWO-ELECTRON INTEGRALS:        373.     BUFFER LENGTH:  32768
 NUMBER OF SEGMENTS:   1  SEGMENT LENGTH:        373      RECORD LENGTH: 524288

 Memory used in sort:       0.56 MW

 SORT1 READ         776. AND WROTE         373. INTEGRALS IN      1 RECORDS. CPU TIME:     0.00 SEC, REAL TIME:     0.01 SEC
 SORT2 READ         373. AND WROTE         373. INTEGRALS IN      1 RECORDS. CPU TIME:     0.01 SEC, REAL TIME:     0.01 SEC

 FILE SIZES:   FILE 1:     2.8 MBYTE,  FILE 4:     4.2 MBYTE,   TOTAL:      7.0 MBYTE

 OPERATOR DM      FOR CENTER  0  COORDINATES:    0.000000    0.000000    0.000000


 **********************************************************************************************************************************
 DATASETS  * FILE   NREC   LENGTH (MB)   RECORD NAMES
              1      19        2.54       500      610      700      900      950      970     1000      129      960     1100   
                                          VAR    BASINP    GEOM    SYMINP    ZMAT    AOBASIS   BASIS     P2S    ABASIS      S 
                                         1400     1410     1200     1210     1080     1600     1650     1300     1700   
                                           T        V       H0       H01     AOSYM     SMH    MOLCAS    ERIS     OPER   

 PROGRAMS   *        TOTAL       INT
 CPU TIMES  *         0.50      0.04
 REAL TIME  *         0.67 SEC
 DISK USED  *         7.48 MB      
 **********************************************************************************************************************************

1PROGRAM * RHF-SCF (CLOSED SHELL)       Authors: W. Meyer, H.-J. Werner


 NUMBER OF ELECTRONS:       1+    1-
 CONVERGENCE THRESHOLDS:    1.00E-06 (Density)    1.00E-07 (Energy)
 MAX. NUMBER OF ITERATIONS:       60
 INTERPOLATION TYPE:            DIIS
 INTERPOLATION STEPS:              2 (START)      1 (STEP)
 LEVEL SHIFTS:                  0.00 (CLOSED)  0.00 (OPEN) 



 Orbital guess generated from atomic densities. Full valence occupancy:    1   0   0   0   1   0   0   0


 Molecular orbital dump at record        2100.2

 Initial alpha occupancy:   1   0   0   0   0   0   0
 Initial beta  occupancy:   1   0   0   0   0   0   0
 Wave function symmetry:    1

 ITERATION    DDIFF          GRAD             ENERGY        2-EL.EN.            DIPOLE MOMENTS         DIIS
    1      0.000D+00      0.000D+00        -1.13032779      1.284917    0.00000    0.00000    0.00000    0
    2      0.000D+00      0.122D-01        -1.13127586      1.309264    0.00000    0.00000    0.00000    1
    3      0.989D-02      0.162D-02        -1.13129384      1.313065    0.00000    0.00000    0.00000    2
    4      0.164D-02      0.619D-04        -1.13129385      1.313111    0.00000    0.00000    0.00000    3
    5      0.381D-04      0.190D-06        -1.13129385      1.313111    0.00000    0.00000    0.00000    3
    6      0.197D-06      0.381D-10        -1.13129385      1.313111    0.00000    0.00000    0.00000    0

 Final occupancy:   1   0   0   0   0   0   0

 !RHF STATE 1.1 Energy                 -1.131293851210
 Nuclear energy                         0.71510434
 One-electron energy                   -2.50295353
 Two-electron energy                    0.65655534
 Virial quotient                       -1.00257812
 !RHF STATE 1.1 Dipole moment           0.00000000     0.00000000     0.00000000
 Dipole moment /Debye                   0.00000000     0.00000000     0.00000000

 Orbital energies:

         1.1          2.1          3.1
     -0.594921     0.771176     2.706256

         1.2
      1.959189

         1.3
      1.959189

         1.5          2.5
      0.239537     1.310551

         1.6
      2.931140

         1.7
      2.931140


 **********************************************************************************************************************************
 DATASETS  * FILE   NREC   LENGTH (MB)   RECORD NAMES
              1      19        2.54       500      610      700      900      950      970     1000      129      960     1100   
                                          VAR    BASINP    GEOM    SYMINP    ZMAT    AOBASIS   BASIS     P2S    ABASIS      S 
                                         1400     1410     1200     1210     1080     1600     1650     1300     1700   
                                           T        V       H0       H01     AOSYM     SMH    MOLCAS    ERIS     OPER   

              2       3        0.26       700     1000     2100   
                                         GEOM     BASIS     RHF  

 PROGRAMS   *        TOTAL        HF       INT
 CPU TIMES  *         0.54      0.04      0.04
 REAL TIME  *         0.74 SEC
 DISK USED  *         7.48 MB      
 **********************************************************************************************************************************


 PROGRAM * OPT (Geometry optimization)     Authors: F. Eckert and H.-J. Werner


 BFGS update of hessian

 *** Long output written to logfile /home/ospite/Desktop/MMfP/Project3/H/molpro/h2.log ***


 Geometry optimization using default procedure for command HF-SCF

 Geometry written to block  1 of record 700

 Making model hessian for Z-matrix coordinates

 Quadratic Steepest Descent - Minimum Search

 Optimization point 1

 Variable                      Last           Current        Next           Gradient       Hessian

 E(HF-SCF000) / Hartree      0.00000000    -1.13129385     0.00000000
 D / ANGSTROM                0.00000000     0.74000000     0.73245400     0.01061596     1.40683292
 Convergence:                0.00000000  (line search)     0.01425987     0.00561773  (total)

 Optimization point 2

 Variable                      Last           Current        Next           Gradient       Hessian

 E(HF-SCF000) / Hartree     -1.13129385    -1.13133358     0.00000000
 D / ANGSTROM                0.74000000     0.73245400     0.73257478    -0.00017268     1.42971601
 Convergence:                0.00000000  (line search)     0.00022823     0.00009138  (total)

 END OF GEOMETRY OPTIMIZATION.    TOTAL CPU:         0.4 SEC

 ITER.   ENERGY(OLD)    ENERGY(NEW)      DE          GRADMAX     GRADNORM    GRADRMS     STEPMAX     STEPLEN     STEPRMS
   1    -1.13129385    -1.13133358    -0.00003973  0.00561773  0.00561773  0.00561773  0.01425987  0.01425987  0.01425987
   2    -1.13133358    -1.13133359    -0.00000001  0.00009138  0.00009138  0.00009138  0.00022823  0.00022823  0.00022823

 Geometry written to block  1 of record 700


 **********************************************************************************************************************************
 DATASETS  * FILE   NREC   LENGTH (MB)   RECORD NAMES
              1      19        2.54       500      610      700      900      950      970     1000      129      960     1100   
                                          VAR    BASINP    GEOM    SYMINP    ZMAT    AOBASIS   BASIS     P2S    ABASIS      S 
                                         1400     1410     1200     1210     1080     1600     1650     1300     1700   
                                           T        V       H0       H01     AOSYM     SMH    MOLCAS    ERIS     OPER   

              2       3        0.26       700     1000     2100   
                                         GEOM     BASIS     RHF  

 PROGRAMS   *        TOTAL      OPTG        HF       INT
 CPU TIMES  *         0.92      0.38      0.04      0.04
 REAL TIME  *         1.48 SEC
 DISK USED  *         7.51 MB      
 **********************************************************************************************************************************


 PROGRAM * HESSIAN

 PROGRAM * MCKINLEY (Hessian of the energy)     Author: A. Bernhardsson, R. Lindh

 Orbitals from record         2100.2

 Number of closed-shell orbitals:  1 (  1  0  0  0  0  0  0 )
 Number of occupied orbitals:      1 (  1  0  0  0  0  0  0 )

 Number of electrons=  2     Singlet     Space symmetry=1      Wavefunction type: CLOSED          


 McKinley needed      0.18 seconds of CPU time

 Entering CPHF calculation

 CPHF needed  10 iterations for  6 perturbations.  Total CPU time:    0.00 sec


 HF-SCF hessian saved to record  5300.2

 FREQUENCIES * CALCULATION OF HARMONIC VIBRATIONAL SPECTRA FOR HF-SCF


 Permanent Dipole Moment [debye]
   1-  3    0.000000    0.000000    0.000000

 Dipole Moment Norm    0.0000000 [debye]

 Dipole Moment Derivatives [debye/ang]
                   1             2             3             4             5             6
         1     0.0000000     0.0000000     0.0000000     0.0000000     0.0000000     0.0000000
         2     0.0000000     0.0000000     0.0000000     0.0000000     0.0000000     0.0000000
         3     0.0000000     0.0000000     0.0000000     0.0000000     0.0000000     0.0000000

 Projecting out rotations and translations

   Low Vibration      Wavenumber
        Nr             [1/cm] 
        1                0.00
        2                0.00
        3                0.00
        4                0.00
        5                0.00

     Vibration        Wavenumber
        Nr             [1/cm] 
        1             4634.76

 FREQUENCIES * CALCULATION OF NORMAL MODES FOR HF-SCF


 Atomic Coordinates

  Nr  Atom  Charge       X              Y              Z

   1   H1    1.00    0.000000000    0.000000000   -0.692182849
   2   H2    1.00    0.000000000    0.000000000    0.692182849

 Frequencies dumped to record   5400.2

 Gradient norm at reference geometry: 0.12923D-03

 Normal Modes

                              1 Ag 
 Wavenumbers [cm-1]         4634.76
 Intensities [km/mol]          0.00
 Intensities [relative]        0.00
           H1X1            -0.00000
           H1Y1            -0.00000
           H1Z1             0.70432
           H2X2            -0.00000
           H2Y2            -0.00000
           H2Z2            -0.70432


 Normal Modes of low/zero frequencies

                                  1           2           3           4           5
 Wavenumbers [cm-1]            0.00        0.00        0.00        0.00        0.00
 Intensities [km/mol]          0.00        0.00        0.00        0.00        0.00
 Intensities [relative]        0.00        0.00        0.00        0.00        0.00
           H1X1             0.00000     0.70432     0.00000    -0.00000     0.70432
           H1Y1             0.84729     0.00000     0.00000    -0.52366    -0.00000
           H1Z1             0.00000    -0.00000     0.70432    -0.00000     0.00000
           H2X2             0.00000     0.70432    -0.00000    -0.00000    -0.70432
           H2Y2             0.52366    -0.00000    -0.00000     0.84729     0.00000
           H2Z2            -0.00000    -0.00000     0.70432    -0.00000     0.00000


 FREQUENCIES * CALCULATION OF THERMODYNAMICAL PROPERTIES

 Temperature   298.150 [K]  Pressure   1.00000 [atm]
 Atom  1: H1        Mass   1.00794
 Atom  2: H2        Mass   1.00794

 Molecular Mass:     2.01588 [a.u.]
 Moments of Inertia           0.96584     0.96584     0.00000 [a.u.]
 Point Group D2h   Order of principal axis 0
 Rotational Symmetry factor  2.0
 Rotational Temperature     89.675185 [K]
 Rotational Constant      1868.538328 [GHz]

 Vibrational Temperatures [K]   6668.35

 Zero-Point vibrational Energy       27.722 [kJ/Mol]
                                      6.626 [kcal/Mol]

 Electronic Energy at 0 [K]:                        -1.131334 [H]
 Electronic Energy + Zero-Point correction:         -1.120775 [H]
 Electronic Energy at     298.150 [K]:              -1.118414 [H]
 Enthalpy H at            298.150 [K]:              -1.117470 [H]
 Free Enthalpy G at       298.150 [K]:              -1.132236 [H]

 Partition Function  Z                 log10(Z)          ln(Z)
 Electronic      0.100000D+01          0.000000          0.000000
 Translation     0.112504D+06          5.051167         11.630743
 Rotation        0.166239D+01          0.220733          0.508255
 Vibration       0.100000D+01          0.000000          0.000000
 Total           0.187025D+06          5.271900         12.138998

                       H(T)-H(0)              Cv                 S
                       [kJ/Mol]          [J/Mol K]          [J/Mol K] 
 Electronic               0.000              0.000              0.000
 Translation              3.718             12.472            117.490
 Rotation                 2.479              8.315             12.540
 Vibration                0.000              0.000              0.000
 Volume (RT)              2.479              0.000              0.000
 Total                    8.676             20.786            130.031

 Thermal energies including ZPE:

 H(T)-E(0)               36.398 kJ/Mol
 U(T)-E(0)               33.919 kJ/Mol

                       H(T)-H(0)              Cv                 S
                       [kcal/Mol]        [cal/Mol K]        [cal/Mol K] 
 Electronic               0.000              0.000              0.000
 Translation              0.889              2.981             28.081
 Rotation                 0.592              1.987              2.997
 Vibration                0.000              0.000              0.000
 Volume (RT)              0.592              0.000              0.000
 Total                    2.074              4.968             31.078

 Thermal energies including ZPE:

 H(T)-E(0)                8.699 kcal/Mol
 U(T)-E(0)                8.107 kcal/Mol
 Frequency information read from record  5400.2

 Dump information in style MOLDEN to molpro.molden.h2                                                                

 Molecular orbitals read from record     2100.2  Type=RHF/CANONICAL (state 1.1)
 Occupation numbers read from record     2100.2  Type=RHF/RHF (state 1.1)
 Orbital energies read from record       2100.2  Type=RHF/CANONICAL (state 1.1)
 Redundancy group numbers read from rec  2100.2  Type=RHF/RHF (state 1.1)

 DUMP ORBITAL  1.1 AS ORBITAL    1  occ=    2.0000  eig=   -0.5972  GROUP=   2

 Total charge:       2.000000
 Frequency information read from record  5400.2

 **********************************************************************************************************************************

        OPTG(HF)        HF-SCF  
     -1.13133359     -1.13129385
 **********************************************************************************************************************************
 Variable memory released
