 Entering Gaussian System, Link 0=/g100_work/pMI24_ChiCa/g09d1/g09d01/d01/build-node-6-2-59348/src/main/g09
 Input=geom.com
 Output=geom.log
 Initial command:
 /g100_work/pMI24_ChiCa/g09d1/g09d01/d01/build-node-6-2-59348/src/main/l1.exe "/g100_scratch/userexternal/ecabiati/g16_14399736/Gau-37842.inp" -scrdir="/g100_scratch/userexternal/ecabiati/g16_14399736/"
 Entering Link 1 = /g100_work/pMI24_ChiCa/g09d1/g09d01/d01/build-node-6-2-59348/src/main/l1.exe PID=     37843.
  
 Copyright (c) 1988,1990,1992,1993,1995,1998,2003,2009,2013,
            Gaussian, Inc.  All Rights Reserved.
  
 This is part of the Gaussian(R) 09 program.  It is based on
 the Gaussian(R) 03 system (copyright 2003, Gaussian, Inc.),
 the Gaussian(R) 98 system (copyright 1998, Gaussian, Inc.),
 the Gaussian(R) 94 system (copyright 1995, Gaussian, Inc.),
 the Gaussian 92(TM) system (copyright 1992, Gaussian, Inc.),
 the Gaussian 90(TM) system (copyright 1990, Gaussian, Inc.),
 the Gaussian 88(TM) system (copyright 1988, Gaussian, Inc.),
 the Gaussian 86(TM) system (copyright 1986, Carnegie Mellon
 University), and the Gaussian 82(TM) system (copyright 1983,
 Carnegie Mellon University). Gaussian is a federally registered
 trademark of Gaussian, Inc.
  
 This software contains proprietary and confidential information,
 including trade secrets, belonging to Gaussian, Inc.
  
 This software is provided under written license and may be
 used, copied, transmitted, or stored only in accord with that
 written license.
  
 The following legend is applicable only to US Government
 contracts under FAR:
  
                    RESTRICTED RIGHTS LEGEND
  
 Use, reproduction and disclosure by the US Government is
 subject to restrictions as set forth in subparagraphs (a)
 and (c) of the Commercial Computer Software - Restricted
 Rights clause in FAR 52.227-19.
  
 Gaussian, Inc.
 340 Quinnipiac St., Bldg. 40, Wallingford CT 06492
  
  
 ---------------------------------------------------------------
 Warning -- This program may not be used in any manner that
 competes with the business of Gaussian, Inc. or will provide
 assistance to any competitor of Gaussian, Inc.  The licensee
 of this program is prohibited from giving any competitor of
 Gaussian, Inc. access to this program.  By using this program,
 the user acknowledges that Gaussian, Inc. is engaged in the
 business of creating and licensing software in the field of
 computational chemistry and represents and warrants to the
 licensee that it is not a competitor of Gaussian, Inc. and that
 it will not use this program in any manner prohibited above.
 ---------------------------------------------------------------
  

 Cite this work as:
 Gaussian 09, Revision D.01,
 M. J. Frisch, G. W. Trucks, H. B. Schlegel, G. E. Scuseria, 
 M. A. Robb, J. R. Cheeseman, G. Scalmani, V. Barone, B. Mennucci, 
 G. A. Petersson, H. Nakatsuji, M. Caricato, X. Li, H. P. Hratchian, 
 A. F. Izmaylov, J. Bloino, G. Zheng, J. L. Sonnenberg, M. Hada, 
 M. Ehara, K. Toyota, R. Fukuda, J. Hasegawa, M. Ishida, T. Nakajima, 
 Y. Honda, O. Kitao, H. Nakai, T. Vreven, J. A. Montgomery, Jr., 
 J. E. Peralta, F. Ogliaro, M. Bearpark, J. J. Heyd, E. Brothers, 
 K. N. Kudin, V. N. Staroverov, T. Keith, R. Kobayashi, J. Normand, 
 K. Raghavachari, A. Rendell, J. C. Burant, S. S. Iyengar, J. Tomasi, 
 M. Cossi, N. Rega, J. M. Millam, M. Klene, J. E. Knox, J. B. Cross, 
 V. Bakken, C. Adamo, J. Jaramillo, R. Gomperts, R. E. Stratmann, 
 O. Yazyev, A. J. Austin, R. Cammi, C. Pomelli, J. W. Ochterski, 
 R. L. Martin, K. Morokuma, V. G. Zakrzewski, G. A. Voth, 
 P. Salvador, J. J. Dannenberg, S. Dapprich, A. D. Daniels, 
 O. Farkas, J. B. Foresman, J. V. Ortiz, J. Cioslowski, 
 and D. J. Fox, Gaussian, Inc., Wallingford CT, 2013.
 
 ******************************************
 Gaussian 09:  EM64L-G09RevD.01 24-Apr-2013
                14-Sep-2024 
 ******************************************
 %nproc=24
 Will use up to   24 processors via shared memory.
 %mem=2Gb
 %chk=ts.chk
 ----------------------------------------------------------------------
 #p B3LYP/6-31g(d,p) opt=(ts,calcfc,noeigentest) nosym freq temperature
 =300 pop=full gfinput
 ----------------------------------------------------------------------
 1/5=1,10=4,11=1,14=-1,18=20,26=3,38=1,112=300000/1,3;
 2/9=110,12=2,15=1,17=6,18=5,40=1/2;
 3/5=1,6=6,7=101,11=2,16=1,24=10,25=1,30=1,71=2,74=-5,140=1/1,2,3;
 4//1;
 5/5=2,38=5/2;
 8/6=4,10=90,11=11/1;
 11/6=1,8=1,9=11,15=111,16=1,31=1/1,2,10;
 10/6=1,13=1,31=1/2;
 6/7=3,28=1/1;
 7/10=1,18=20,25=1,30=1/1,2,3,16;
 1/5=1,10=4,11=1,14=-1,18=20,26=3/3(2);
 2/9=110,15=1/2;
 99//99;
 2/9=110,15=1/2;
 3/5=1,6=6,7=101,11=2,16=1,25=1,30=1,71=1,74=-5/1,2,3;
 4/5=5,16=3,69=1/1;
 5/5=2,38=5/2;
 7/30=1/1,2,3,16;
 1/5=1,11=1,14=-1,18=20,26=3/3(-5);
 2/9=110,15=1/2;
 6/7=3,19=2,28=1/1;
 99/9=1/99;
 Leave Link    1 at Sat Sep 14 01:37:49 2024, MaxMem=   268435456 cpu:         0.2
 (Enter /g100_work/pMI24_ChiCa/g09d1/g09d01/d01/build-node-6-2-59348/src/main/l101.exe)
 ------------------
 nh3+h to nh2+h2 ts
 ------------------
 Symbolic Z-matrix:
 Charge =  0 Multiplicity = 2
 n
 h                    1    hn2
 h                    1    hn3      2    hnh3
 h                    1    hn4      3    hnh4     2    dih4     0
 xx                   3    xxh5     1    xxhn5    4    dih5     0
 h                    3    hh6      5    hhxx6    1    dih6     0
       Variables:
  hn2                   1.0013                   
  hn3                   1.0473                   
  hnh3                119.0837                   
  hn4                   1.0013                   
  hnh4                119.085                    
  dih4                180.0329                   
  xxh5                  1.0215  -1        0.     
  xxhn5                76.9226  -1        0.     
  dih5                 77.3649  -1        0.     
  hh6                   1.1053                   
  hhxx6               103.0753                   
  dih6                179.9781                   
 
 Add virtual bond connecting atoms H5         and H3         Dist= 2.09D+00.
 NAtoms=      5 NQM=        5 NQMF=       0 NMMI=      0 NMMIF=      0
                NMic=       0 NMicF=      0.
                    Isotopes and Nuclear Properties:
 (Nuclear quadrupole moments (NQMom) in fm**2, nuclear magnetic moments (NMagM)
  in nuclear magnetons)

  Atom         1           2           3           4           5
 IAtWgt=          14           1           1           1           1
 AtmWgt=  14.0030740   1.0078250   1.0078250   1.0078250   1.0078250
 NucSpn=           2           1           1           1           1
 AtZEff=   0.0000000   0.0000000   0.0000000   0.0000000   0.0000000
 NQMom=    2.0440000   0.0000000   0.0000000   0.0000000   0.0000000
 NMagM=    0.4037610   2.7928460   2.7928460   2.7928460   2.7928460
 AtZNuc=   7.0000000   1.0000000   1.0000000   1.0000000   1.0000000
 Leave Link  101 at Sat Sep 14 01:37:49 2024, MaxMem=   268435456 cpu:         0.2
 (Enter /g100_work/pMI24_ChiCa/g09d1/g09d01/d01/build-node-6-2-59348/src/main/l103.exe)

 GradGradGradGradGradGradGradGradGradGradGradGradGradGradGradGradGradGrad
 Berny optimization.
 Initialization pass.
                           ----------------------------
                           !    Initial Parameters    !
                           ! (Angstroms and Degrees)  !
 --------------------------                            --------------------------
 ! Name  Definition              Value          Derivative Info.                !
 --------------------------------------------------------------------------------
 ! R1    R(1,2)                  1.0013         calculate D2E/DX2 analytically  !
 ! R2    R(1,3)                  1.0473         calculate D2E/DX2 analytically  !
 ! R3    R(1,4)                  1.0013         calculate D2E/DX2 analytically  !
 ! R4    R(3,5)                  1.1053         calculate D2E/DX2 analytically  !
 ! A1    A(2,1,3)              119.0837         calculate D2E/DX2 analytically  !
 ! A2    A(2,1,4)              121.8313         calculate D2E/DX2 analytically  !
 ! A3    A(3,1,4)              119.085          calculate D2E/DX2 analytically  !
 ! A4    L(1,3,5,4,-1)         179.9787         calculate D2E/DX2 analytically  !
 ! A5    L(1,3,5,4,-2)         180.0053         calculate D2E/DX2 analytically  !
 ! D1    D(2,1,4,3)           -179.9662         calculate D2E/DX2 analytically  !
 --------------------------------------------------------------------------------
 Trust Radius=3.00D-01 FncErr=1.00D-07 GrdErr=1.00D-06
 Number of steps in this run=     20 maximum allowed number of steps=    100.
 Search for a saddle point of order  1.
 GradGradGradGradGradGradGradGradGradGradGradGradGradGradGradGradGradGrad

 Leave Link  103 at Sat Sep 14 01:37:49 2024, MaxMem=   268435456 cpu:         0.1
 (Enter /g100_work/pMI24_ChiCa/g09d1/g09d01/d01/build-node-6-2-59348/src/main/l202.exe)
                          Input orientation:                          
 ---------------------------------------------------------------------
 Center     Atomic      Atomic             Coordinates (Angstroms)
 Number     Number       Type             X           Y           Z
 ---------------------------------------------------------------------
      1          7           0        0.000000    0.000000    0.000000
      2          1           0        0.000000    0.000000    1.001300
      3          1           0        0.915247    0.000000   -0.509079
      4          1           0       -0.850709   -0.000502   -0.528106
      5          1           0        1.880980   -0.000051   -1.046709
 ---------------------------------------------------------------------
                    Distance matrix (angstroms):
                    1          2          3          4          5
     1  N    0.000000
     2  H    1.001300   0.000000
     3  H    1.047300   1.766046   0.000000
     4  H    1.001300   1.750082   1.766058   0.000000
     5  H    2.152600   2.780724   1.105300   2.780481   0.000000
 Symmetry turned off by external request.
 Stoichiometry    H4N(2)
 Framework group  C1[X(H4N)]
 Deg. of freedom     9
 Full point group                 C1      NOp   1
 Rotational constants (GHZ):    327.4501179     84.6007022     67.2308107
 Leave Link  202 at Sat Sep 14 01:37:49 2024, MaxMem=   268435456 cpu:         0.1
 (Enter /g100_work/pMI24_ChiCa/g09d1/g09d01/d01/build-node-6-2-59348/src/main/l301.exe)
 Standard basis: 6-31G(d,p) (6D, 7F)
 Ernie: Thresh=  0.10000D-02 Tol=  0.10000D-05 Strict=F.
 AO basis set in the form of general basis input (Overlap normalization):
      1 0
 S   6 1.00       0.000000000000
      0.4173511460D+04  0.1834772160D-02
      0.6274579110D+03  0.1399462700D-01
      0.1429020930D+03  0.6858655181D-01
      0.4023432930D+02  0.2322408730D+00
      0.1282021290D+02  0.4690699481D+00
      0.4390437010D+01  0.3604551991D+00
 SP   3 1.00       0.000000000000
      0.1162636186D+02 -0.1149611817D+00  0.6757974388D-01
      0.2716279807D+01 -0.1691174786D+00  0.3239072959D+00
      0.7722183966D+00  0.1145851947D+01  0.7408951398D+00
 SP   1 1.00       0.000000000000
      0.2120314975D+00  0.1000000000D+01  0.1000000000D+01
 D   1 1.00       0.000000000000
      0.8000000000D+00  0.1000000000D+01
 ****
      2 0
 S   3 1.00       0.000000000000
      0.1873113696D+02  0.3349460434D-01
      0.2825394365D+01  0.2347269535D+00
      0.6401216923D+00  0.8137573261D+00
 S   1 1.00       0.000000000000
      0.1612777588D+00  0.1000000000D+01
 P   1 1.00       0.000000000000
      0.1100000000D+01  0.1000000000D+01
 ****
      3 0
 S   3 1.00       0.000000000000
      0.1873113696D+02  0.3349460434D-01
      0.2825394365D+01  0.2347269535D+00
      0.6401216923D+00  0.8137573261D+00
 S   1 1.00       0.000000000000
      0.1612777588D+00  0.1000000000D+01
 P   1 1.00       0.000000000000
      0.1100000000D+01  0.1000000000D+01
 ****
      4 0
 S   3 1.00       0.000000000000
      0.1873113696D+02  0.3349460434D-01
      0.2825394365D+01  0.2347269535D+00
      0.6401216923D+00  0.8137573261D+00
 S   1 1.00       0.000000000000
      0.1612777588D+00  0.1000000000D+01
 P   1 1.00       0.000000000000
      0.1100000000D+01  0.1000000000D+01
 ****
      5 0
 S   3 1.00       0.000000000000
      0.1873113696D+02  0.3349460434D-01
      0.2825394365D+01  0.2347269535D+00
      0.6401216923D+00  0.8137573261D+00
 S   1 1.00       0.000000000000
      0.1612777588D+00  0.1000000000D+01
 P   1 1.00       0.000000000000
      0.1100000000D+01  0.1000000000D+01
 ****

    35 basis functions,    56 primitive gaussians,    35 cartesian basis functions
     6 alpha electrons        5 beta electrons
       nuclear repulsion energy        14.4176606592 Hartrees.
 IExCor=  402 DFT=T Ex+Corr=B3LYP ExCW=0 ScaHFX=  0.200000
 ScaDFX=  0.800000  0.720000  1.000000  0.810000 ScalE2=  1.000000  1.000000
 IRadAn=      0 IRanWt=     -1 IRanGd=            0 ICorTp=0 IEmpDi=  4
 NAtoms=    5 NActive=    5 NUniq=    5 SFac= 1.00D+00 NAtFMM=   60 NAOKFM=F Big=F
 Integral buffers will be    131072 words long.
 Raffenetti 2 integral format.
 Two-electron integral symmetry is turned off.
 Leave Link  301 at Sat Sep 14 01:37:49 2024, MaxMem=   268435456 cpu:         0.1
 (Enter /g100_work/pMI24_ChiCa/g09d1/g09d01/d01/build-node-6-2-59348/src/main/l302.exe)
 NPDir=0 NMtPBC=     1 NCelOv=     1 NCel=       1 NClECP=     1 NCelD=      1
         NCelK=      1 NCelE2=     1 NClLst=     1 CellRange=     0.0.
 One-electron integrals computed using PRISM.
 NBasis=    35 RedAO= T EigKep=  1.37D-02  NBF=    35
 NBsUse=    35 1.00D-06 EigRej= -1.00D+00 NBFU=    35
 Precomputing XC quadrature grid using
 IXCGrd= 4 IRadAn=           0 IRanWt=          -1 IRanGd=           0 AccXCQ= 0.00D+00.
 Generated NRdTot=       0 NPtTot=           0 NUsed=           0 NTot=          32
 NSgBfM=    35    35    35    35    35 MxSgAt=     5 MxSgA2=     5.
 Leave Link  302 at Sat Sep 14 01:37:50 2024, MaxMem=   268435456 cpu:         1.2
 (Enter /g100_work/pMI24_ChiCa/g09d1/g09d01/d01/build-node-6-2-59348/src/main/l303.exe)
 DipDrv:  MaxL=1.
 Leave Link  303 at Sat Sep 14 01:37:50 2024, MaxMem=   268435456 cpu:         0.1
 (Enter /g100_work/pMI24_ChiCa/g09d1/g09d01/d01/build-node-6-2-59348/src/main/l401.exe)
 ExpMin= 1.61D-01 ExpMax= 4.17D+03 ExpMxC= 6.27D+02 IAcc=1 IRadAn=         1 AccDes= 0.00D+00
 Harris functional with IExCor=  402 and IRadAn=       1 diagonalized for initial guess.
 HarFok:  IExCor=  402 AccDes= 0.00D+00 IRadAn=         1 IDoV= 1 UseB2=F ITyADJ=14
 ICtDFT=  3500011 ScaDFX=  1.000000  1.000000  1.000000  1.000000
 FoFCou: FMM=F IPFlag=           0 FMFlag=      100000 FMFlg1=           0
         NFxFlg=           0 DoJE=T BraDBF=F KetDBF=T FulRan=T
         wScrn=  0.000000 ICntrl=     500 IOpCl=  0 I1Cent=   200000004 NGrid=           0
         NMat0=    1 NMatS0=      1 NMatT0=    0 NMatD0=    1 NMtDS0=    0 NMtDT0=    0
 Symmetry not used in FoFCou.
 Harris En= -57.0342933888683    
 JPrj=0 DoOrth=F DoCkMO=F.
 Initial guess <Sx>= 0.0000 <Sy>= 0.0000 <Sz>= 0.5000 <S**2>= 0.7500 S= 0.5000
 Leave Link  401 at Sat Sep 14 01:37:50 2024, MaxMem=   268435456 cpu:         1.2
 (Enter /g100_work/pMI24_ChiCa/g09d1/g09d01/d01/build-node-6-2-59348/src/main/l502.exe)
 UHF open shell SCF:
 Using DIIS extrapolation, IDIIS=  1040.
 Two-electron integral symmetry not used.
 Keep R1 and R2 ints in memory in canonical form, NReq=1281121.
 IVT=       23285 IEndB=       23285 NGot=   268435456 MDV=   268014642
 LenX=   268014642 LenY=   268012976
 Requested convergence on RMS density matrix=1.00D-08 within 128 cycles.
 Requested convergence on MAX density matrix=1.00D-06.
 Requested convergence on             energy=1.00D-06.
 No special actions if energy rises.
 FoFCou: FMM=F IPFlag=           0 FMFlag=           0 FMFlg1=           0
         NFxFlg=           0 DoJE=F BraDBF=F KetDBF=F FulRan=T
         wScrn=  0.000000 ICntrl=     600 IOpCl=  0 I1Cent=           0 NGrid=           0
         NMat0=    1 NMatS0=    630 NMatT0=    0 NMatD0=    1 NMtDS0=    0 NMtDT0=    0
 Symmetry not used in FoFCou.
 Integral accuracy reduced to 1.0D-05 until final iterations.

 Cycle   1  Pass 0  IDiag  1:
 E= -56.9372251546495    
 DIIS: error= 6.64D-02 at cycle   1 NSaved=   1.
 NSaved= 1 IEnMin= 1 EnMin= -56.9372251546495     IErMin= 1 ErrMin= 6.64D-02
 ErrMax= 6.64D-02  0.00D+00 EMaxC= 1.00D-01 BMatC= 4.43D-01 BMatP= 4.43D-01
 IDIUse=3 WtCom= 3.36D-01 WtEn= 6.64D-01
 Coeff-Com:  0.100D+01
 Coeff-En:   0.100D+01
 Coeff:      0.100D+01
 Gap=     0.445 Goal=   None    Shift=    0.000
 Gap=    -0.059 Goal=   None    Shift=    0.000
 GapD=   -0.059 DampG=0.250 DampE=0.500 DampFc=0.2500 IDamp=-1.
 Damping current iteration by 2.50D-01
 RMSDP=2.99D-02 MaxDP=6.59D-01              OVMax= 9.73D-01

 Cycle   2  Pass 0  IDiag  1:
 E= -56.9622412905107     Delta-E=       -0.025016135861 Rises=F Damp=T
 DIIS: error= 2.74D-02 at cycle   2 NSaved=   2.
 NSaved= 2 IEnMin= 2 EnMin= -56.9622412905107     IErMin= 2 ErrMin= 2.74D-02
 ErrMax= 2.74D-02  0.00D+00 EMaxC= 1.00D-01 BMatC= 4.21D-02 BMatP= 4.43D-01
 IDIUse=3 WtCom= 7.26D-01 WtEn= 2.74D-01
 Coeff-Com: -0.350D+00 0.135D+01
 Coeff-En:   0.187D+00 0.813D+00
 Coeff:     -0.203D+00 0.120D+01
 Gap=     0.338 Goal=   None    Shift=    0.000
 Gap=    -0.074 Goal=   None    Shift=    0.000
 RMSDP=7.11D-03 MaxDP=1.64D-01 DE=-2.50D-02 OVMax= 1.00D+00

 Cycle   3  Pass 0  IDiag  1:
 E= -57.0288016781352     Delta-E=       -0.066560387624 Rises=F Damp=F
 DIIS: error= 1.38D-02 at cycle   3 NSaved=   3.
 NSaved= 3 IEnMin= 3 EnMin= -57.0288016781352     IErMin= 3 ErrMin= 1.38D-02
 ErrMax= 1.38D-02  0.00D+00 EMaxC= 1.00D-01 BMatC= 1.20D-02 BMatP= 4.21D-02
 IDIUse=3 WtCom= 8.62D-01 WtEn= 1.38D-01
 Coeff-Com: -0.213D+00 0.662D+00 0.552D+00
 Coeff-En:   0.000D+00 0.000D+00 0.100D+01
 Coeff:     -0.184D+00 0.570D+00 0.613D+00
 Gap=     0.376 Goal=   None    Shift=    0.000
 Gap=     0.091 Goal=   None    Shift=    0.000
 RMSDP=2.50D-03 MaxDP=3.46D-02 DE=-6.66D-02 OVMax= 3.30D-02

 Cycle   4  Pass 0  IDiag  1:
 E= -57.0328419451260     Delta-E=       -0.004040266991 Rises=F Damp=F
 DIIS: error= 7.83D-03 at cycle   4 NSaved=   4.
 NSaved= 4 IEnMin= 4 EnMin= -57.0328419451260     IErMin= 4 ErrMin= 7.83D-03
 ErrMax= 7.83D-03  0.00D+00 EMaxC= 1.00D-01 BMatC= 4.16D-03 BMatP= 1.20D-02
 IDIUse=3 WtCom= 9.22D-01 WtEn= 7.83D-02
 Coeff-Com: -0.136D+00 0.182D+00-0.231D+00 0.118D+01
 Coeff-En:   0.000D+00 0.000D+00 0.000D+00 0.100D+01
 Coeff:     -0.125D+00 0.168D+00-0.213D+00 0.117D+01
 Gap=     0.334 Goal=   None    Shift=    0.000
 Gap=     0.103 Goal=   None    Shift=    0.000
 RMSDP=1.45D-03 MaxDP=2.43D-02 DE=-4.04D-03 OVMax= 1.81D-02

 Cycle   5  Pass 0  IDiag  1:
 E= -57.0341342793856     Delta-E=       -0.001292334260 Rises=F Damp=F
 DIIS: error= 2.36D-03 at cycle   5 NSaved=   5.
 NSaved= 5 IEnMin= 5 EnMin= -57.0341342793856     IErMin= 5 ErrMin= 2.36D-03
 ErrMax= 2.36D-03  0.00D+00 EMaxC= 1.00D-01 BMatC= 3.35D-04 BMatP= 4.16D-03
 IDIUse=3 WtCom= 9.76D-01 WtEn= 2.36D-02
 Coeff-Com: -0.231D-01 0.323D-01-0.121D+00 0.581D-02 0.111D+01
 Coeff-En:   0.000D+00 0.000D+00 0.000D+00 0.000D+00 0.100D+01
 Coeff:     -0.225D-01 0.315D-01-0.118D+00 0.568D-02 0.110D+01
 Gap=     0.332 Goal=   None    Shift=    0.000
 Gap=     0.108 Goal=   None    Shift=    0.000
 RMSDP=4.67D-04 MaxDP=7.36D-03 DE=-1.29D-03 OVMax= 6.68D-03

 Cycle   6  Pass 0  IDiag  1:
 E= -57.0342521481731     Delta-E=       -0.000117868787 Rises=F Damp=F
 DIIS: error= 6.65D-04 at cycle   6 NSaved=   6.
 NSaved= 6 IEnMin= 6 EnMin= -57.0342521481731     IErMin= 6 ErrMin= 6.65D-04
 ErrMax= 6.65D-04  0.00D+00 EMaxC= 1.00D-01 BMatC= 1.92D-05 BMatP= 3.35D-04
 IDIUse=3 WtCom= 9.93D-01 WtEn= 6.65D-03
 Coeff-Com:  0.130D-02-0.117D-03 0.158D-02-0.952D-01 0.469D-01 0.105D+01
 Coeff-En:   0.000D+00 0.000D+00 0.000D+00 0.000D+00 0.000D+00 0.100D+01
 Coeff:      0.129D-02-0.116D-03 0.157D-02-0.945D-01 0.466D-01 0.105D+01
 Gap=     0.331 Goal=   None    Shift=    0.000
 Gap=     0.108 Goal=   None    Shift=    0.000
 RMSDP=1.28D-04 MaxDP=2.02D-03 DE=-1.18D-04 OVMax= 2.30D-03

 Cycle   7  Pass 0  IDiag  1:
 E= -57.0342593073709     Delta-E=       -0.000007159198 Rises=F Damp=F
 DIIS: error= 3.11D-05 at cycle   7 NSaved=   7.
 NSaved= 7 IEnMin= 7 EnMin= -57.0342593073709     IErMin= 7 ErrMin= 3.11D-05
 ErrMax= 3.11D-05  0.00D+00 EMaxC= 1.00D-01 BMatC= 7.90D-08 BMatP= 1.92D-05
 IDIUse=1 WtCom= 1.00D+00 WtEn= 0.00D+00
 Coeff-Com:  0.106D-02-0.120D-02 0.464D-02 0.466D-02-0.348D-01-0.842D-01
 Coeff-Com:  0.111D+01
 Coeff:      0.106D-02-0.120D-02 0.464D-02 0.466D-02-0.348D-01-0.842D-01
 Coeff:      0.111D+01
 Gap=     0.331 Goal=   None    Shift=    0.000
 Gap=     0.108 Goal=   None    Shift=    0.000
 RMSDP=6.89D-06 MaxDP=7.09D-05 DE=-7.16D-06 OVMax= 1.87D-04

 Initial convergence to 1.0D-05 achieved.  Increase integral accuracy.
 Cycle   8  Pass 1  IDiag  1:
 E= -57.0342592916523     Delta-E=        0.000000015719 Rises=F Damp=F
 DIIS: error= 1.99D-05 at cycle   1 NSaved=   1.
 NSaved= 1 IEnMin= 1 EnMin= -57.0342592916523     IErMin= 1 ErrMin= 1.99D-05
 ErrMax= 1.99D-05  0.00D+00 EMaxC= 1.00D-01 BMatC= 3.83D-08 BMatP= 3.83D-08
 IDIUse=1 WtCom= 1.00D+00 WtEn= 0.00D+00
 Coeff-Com:  0.100D+01
 Coeff:      0.100D+01
 Gap=     0.331 Goal=   None    Shift=    0.000
 Gap=     0.108 Goal=   None    Shift=    0.000
 RMSDP=6.89D-06 MaxDP=7.09D-05 DE= 1.57D-08 OVMax= 1.00D-04

 Cycle   9  Pass 1  IDiag  1:
 E= -57.0342592892320     Delta-E=        0.000000002420 Rises=F Damp=F
 DIIS: error= 2.56D-05 at cycle   2 NSaved=   2.
 NSaved= 2 IEnMin= 1 EnMin= -57.0342592916523     IErMin= 1 ErrMin= 1.99D-05
 ErrMax= 2.56D-05  0.00D+00 EMaxC= 1.00D-01 BMatC= 6.39D-08 BMatP= 3.83D-08
 IDIUse=1 WtCom= 1.00D+00 WtEn= 0.00D+00
 Coeff-Com:  0.567D+00 0.433D+00
 Coeff:      0.567D+00 0.433D+00
 Gap=     0.331 Goal=   None    Shift=    0.000
 Gap=     0.108 Goal=   None    Shift=    0.000
 RMSDP=2.65D-06 MaxDP=3.52D-05 DE= 2.42D-09 OVMax= 5.11D-05

 Cycle  10  Pass 1  IDiag  1:
 E= -57.0342593031016     Delta-E=       -0.000000013870 Rises=F Damp=F
 DIIS: error= 2.25D-06 at cycle   3 NSaved=   3.
 NSaved= 3 IEnMin= 3 EnMin= -57.0342593031016     IErMin= 3 ErrMin= 2.25D-06
 ErrMax= 2.25D-06  0.00D+00 EMaxC= 1.00D-01 BMatC= 2.75D-10 BMatP= 3.83D-08
 IDIUse=1 WtCom= 1.00D+00 WtEn= 0.00D+00
 Coeff-Com:  0.273D-01 0.583D-01 0.914D+00
 Coeff:      0.273D-01 0.583D-01 0.914D+00
 Gap=     0.331 Goal=   None    Shift=    0.000
 Gap=     0.108 Goal=   None    Shift=    0.000
 RMSDP=3.27D-07 MaxDP=5.69D-06 DE=-1.39D-08 OVMax= 8.81D-06

 Cycle  11  Pass 1  IDiag  1:
 E= -57.0342593031968     Delta-E=       -0.000000000095 Rises=F Damp=F
 DIIS: error= 4.10D-07 at cycle   4 NSaved=   4.
 NSaved= 4 IEnMin= 4 EnMin= -57.0342593031968     IErMin= 4 ErrMin= 4.10D-07
 ErrMax= 4.10D-07  0.00D+00 EMaxC= 1.00D-01 BMatC= 2.39D-11 BMatP= 2.75D-10
 IDIUse=1 WtCom= 1.00D+00 WtEn= 0.00D+00
 Coeff-Com: -0.306D-01-0.966D-02 0.701D-01 0.970D+00
 Coeff:     -0.306D-01-0.966D-02 0.701D-01 0.970D+00
 Gap=     0.331 Goal=   None    Shift=    0.000
 Gap=     0.108 Goal=   None    Shift=    0.000
 RMSDP=1.47D-07 MaxDP=1.83D-06 DE=-9.52D-11 OVMax= 1.94D-06

 Cycle  12  Pass 1  IDiag  1:
 E= -57.0342593032071     Delta-E=       -0.000000000010 Rises=F Damp=F
 DIIS: error= 1.79D-07 at cycle   5 NSaved=   5.
 NSaved= 5 IEnMin= 5 EnMin= -57.0342593032071     IErMin= 5 ErrMin= 1.79D-07
 ErrMax= 1.79D-07  0.00D+00 EMaxC= 1.00D-01 BMatC= 1.87D-12 BMatP= 2.39D-11
 IDIUse=1 WtCom= 1.00D+00 WtEn= 0.00D+00
 Coeff-Com: -0.645D-02-0.287D-02-0.421D-01 0.106D+00 0.946D+00
 Coeff:     -0.645D-02-0.287D-02-0.421D-01 0.106D+00 0.946D+00
 Gap=     0.331 Goal=   None    Shift=    0.000
 Gap=     0.108 Goal=   None    Shift=    0.000
 RMSDP=4.53D-08 MaxDP=5.50D-07 DE=-1.03D-11 OVMax= 1.12D-06

 Cycle  13  Pass 1  IDiag  1:
 E= -57.0342593032081     Delta-E=       -0.000000000001 Rises=F Damp=F
 DIIS: error= 3.15D-08 at cycle   6 NSaved=   6.
 NSaved= 6 IEnMin= 6 EnMin= -57.0342593032081     IErMin= 6 ErrMin= 3.15D-08
 ErrMax= 3.15D-08  0.00D+00 EMaxC= 1.00D-01 BMatC= 9.40D-14 BMatP= 1.87D-12
 IDIUse=1 WtCom= 1.00D+00 WtEn= 0.00D+00
 Coeff-Com:  0.182D-02 0.288D-03-0.270D-02-0.715D-01-0.197D-01 0.109D+01
 Coeff:      0.182D-02 0.288D-03-0.270D-02-0.715D-01-0.197D-01 0.109D+01
 Gap=     0.331 Goal=   None    Shift=    0.000
 Gap=     0.108 Goal=   None    Shift=    0.000
 RMSDP=1.95D-08 MaxDP=2.52D-07 DE=-9.81D-13 OVMax= 7.83D-07

 Cycle  14  Pass 1  IDiag  1:
 E= -57.0342593032082     Delta-E=       -0.000000000000 Rises=F Damp=F
 DIIS: error= 1.65D-08 at cycle   7 NSaved=   7.
 NSaved= 7 IEnMin= 7 EnMin= -57.0342593032082     IErMin= 7 ErrMin= 1.65D-08
 ErrMax= 1.65D-08  0.00D+00 EMaxC= 1.00D-01 BMatC= 9.91D-15 BMatP= 9.40D-14
 IDIUse=1 WtCom= 1.00D+00 WtEn= 0.00D+00
 Coeff-Com:  0.147D-04 0.599D-04 0.193D-02 0.801D-02-0.281D-01-0.237D+00
 Coeff-Com:  0.125D+01
 Coeff:      0.147D-04 0.599D-04 0.193D-02 0.801D-02-0.281D-01-0.237D+00
 Coeff:      0.125D+01
 Gap=     0.331 Goal=   None    Shift=    0.000
 Gap=     0.108 Goal=   None    Shift=    0.000
 RMSDP=1.10D-08 MaxDP=1.50D-07 DE=-7.11D-14 OVMax= 4.67D-07

 Cycle  15  Pass 1  IDiag  1:
 E= -57.0342593032081     Delta-E=        0.000000000000 Rises=F Damp=F
 DIIS: error= 8.06D-09 at cycle   8 NSaved=   8.
 NSaved= 8 IEnMin= 7 EnMin= -57.0342593032082     IErMin= 8 ErrMin= 8.06D-09
 ErrMax= 8.06D-09  0.00D+00 EMaxC= 1.00D-01 BMatC= 2.21D-15 BMatP= 9.91D-15
 IDIUse=1 WtCom= 1.00D+00 WtEn= 0.00D+00
 Coeff-Com: -0.317D-03-0.903D-04-0.103D-02 0.849D-02 0.208D-01-0.529D-01
 Coeff-Com: -0.730D+00 0.176D+01
 Coeff:     -0.317D-03-0.903D-04-0.103D-02 0.849D-02 0.208D-01-0.529D-01
 Coeff:     -0.730D+00 0.176D+01
 Gap=     0.331 Goal=   None    Shift=    0.000
 Gap=     0.108 Goal=   None    Shift=    0.000
 RMSDP=8.81D-09 MaxDP=1.21D-07 DE= 4.26D-14 OVMax= 3.76D-07

 SCF Done:  E(UB3LYP) =  -57.0342593032     A.U. after   15 cycles
            NFock= 15  Conv=0.88D-08     -V/T= 2.0084
 <Sx>= 0.0000 <Sy>= 0.0000 <Sz>= 0.5000 <S**2>= 0.7524 S= 0.5012
 <L.S>=  0.00000000000    
 KE= 5.656141395723D+01 PE=-1.616986567074D+02 EE= 3.368532278773D+01
 Annihilation of the first spin contaminant:
 S**2 before annihilation     0.7524,   after     0.7500
 Leave Link  502 at Sat Sep 14 01:37:50 2024, MaxMem=   268435456 cpu:         6.0
 (Enter /g100_work/pMI24_ChiCa/g09d1/g09d01/d01/build-node-6-2-59348/src/main/l801.exe)
 DoSCS=F DFT=T ScalE2(SS,OS)=  1.000000  1.000000
 Range of M.O.s used for correlation:     1    35
 NBasis=    35 NAE=     6 NBE=     5 NFC=     0 NFV=     0
 NROrb=     35 NOA=     6 NOB=     5 NVA=    29 NVB=    30
 Leave Link  801 at Sat Sep 14 01:37:50 2024, MaxMem=   268435456 cpu:         0.1
 (Enter /g100_work/pMI24_ChiCa/g09d1/g09d01/d01/build-node-6-2-59348/src/main/l1101.exe)
 Using compressed storage, NAtomX=     5.
 Will process      6 centers per pass.
 Leave Link 1101 at Sat Sep 14 01:37:50 2024, MaxMem=   268435456 cpu:         1.3
 (Enter /g100_work/pMI24_ChiCa/g09d1/g09d01/d01/build-node-6-2-59348/src/main/l1102.exe)
 Symmetrizing basis deriv contribution to polar:
 IMax=3 JMax=2 DiffMx= 0.00D+00
 Leave Link 1102 at Sat Sep 14 01:37:50 2024, MaxMem=   268435456 cpu:         0.2
 (Enter /g100_work/pMI24_ChiCa/g09d1/g09d01/d01/build-node-6-2-59348/src/main/l1110.exe)
 Forming Gx(P) for the SCF density, NAtomX=     5.
 Integral derivatives from FoFJK, PRISM(SPDF).
 Do as many integral derivatives as possible in FoFJK.
 G2DrvN: MDV=     268435312.
 G2DrvN: will do     6 centers at a time, making    1 passes.
 Calling FoFCou, ICntrl=  3107 FMM=F I1Cent=   0 AccDes= 0.00D+00.
 FoFJK:  IHMeth= 1 ICntrl=    3107 DoSepK=F KAlg= 0 I1Cent=   0 FoldK=F
 IRaf=         0 NMat=   1 IRICut=       1 DoRegI=T DoRafI=F ISym2E= 0.
 FoFCou: FMM=F IPFlag=           0 FMFlag=      100000 FMFlg1=           0
         NFxFlg=           0 DoJE=F BraDBF=F KetDBF=F FulRan=T
         wScrn=  0.000000 ICntrl=    3107 IOpCl=  1 I1Cent=           0 NGrid=           0
         NMat0=    1 NMatS0=      1 NMatT0=    0 NMatD0=    1 NMtDS0=    0 NMtDT0=    0
 Symmetry not used in FoFCou.
 End of G2Drv F.D. properties file   721 does not exist.
 End of G2Drv F.D. properties file   722 does not exist.
 End of G2Drv F.D. properties file   788 does not exist.
 Leave Link 1110 at Sat Sep 14 01:37:51 2024, MaxMem=   268435456 cpu:         3.4
 (Enter /g100_work/pMI24_ChiCa/g09d1/g09d01/d01/build-node-6-2-59348/src/main/l1002.exe)
 Minotr:  UHF open shell wavefunction.
          IDoAtm=11111
          Direct CPHF calculation.
          Differentiating once with respect to nuclear coordinates.
          Requested convergence is 1.0D-08 RMS, and 1.0D-07 maximum.
          Secondary convergence is 1.0D-12 RMS, and 1.0D-12 maximum.
          NewPWx=T KeepS1=F KeepF1=F KeepIn=T MapXYZ=F SortEE=F KeepMc=T.
          MDV=     268435332 using IRadAn=       2.
 Generate precomputed XC quadrature information.
 Keep R1 and R2 ints in memory in canonical form, NReq=1257859.
 FoFCou: FMM=F IPFlag=           0 FMFlag=           0 FMFlg1=           0
         NFxFlg=           0 DoJE=F BraDBF=F KetDBF=F FulRan=T
         wScrn=  0.000000 ICntrl=     600 IOpCl=  0 I1Cent=           0 NGrid=           0
         NMat0=    1 NMatS0=    630 NMatT0=    0 NMatD0=    1 NMtDS0=    0 NMtDT0=    0
 Symmetry not used in FoFCou.
          Solving linear equations simultaneously, MaxMat=       0.
          There are    18 degrees of freedom in the 1st order CPHF.  IDoFFX=6 NUNeed=     0.
     12 vectors produced by pass  0 Test12= 1.80D-15 5.56D-09 XBig12= 1.34D-01 2.11D-01.
 AX will form    12 AO Fock derivatives at one time.
     12 vectors produced by pass  1 Test12= 1.80D-15 5.56D-09 XBig12= 9.68D-03 3.86D-02.
     12 vectors produced by pass  2 Test12= 1.80D-15 5.56D-09 XBig12= 1.60D-04 4.90D-03.
     12 vectors produced by pass  3 Test12= 1.80D-15 5.56D-09 XBig12= 7.91D-07 3.81D-04.
     12 vectors produced by pass  4 Test12= 1.80D-15 5.56D-09 XBig12= 5.42D-09 2.45D-05.
     10 vectors produced by pass  5 Test12= 1.80D-15 5.56D-09 XBig12= 1.04D-11 9.67D-07.
      3 vectors produced by pass  6 Test12= 1.80D-15 5.56D-09 XBig12= 2.68D-14 5.24D-08.
 InvSVY:  IOpt=1 It=  1 EMax= 8.88D-16
 Solved reduced A of dimension    73 with    12 vectors.
 End of Minotr F.D. properties file   721 does not exist.
 End of Minotr F.D. properties file   722 does not exist.
 End of Minotr F.D. properties file   788 does not exist.
 Leave Link 1002 at Sat Sep 14 01:37:51 2024, MaxMem=   268435456 cpu:         5.5
 (Enter /g100_work/pMI24_ChiCa/g09d1/g09d01/d01/build-node-6-2-59348/src/main/l601.exe)
 Copying SCF densities to generalized density rwf, IOpCl= 1 IROHF=0.

 **********************************************************************

            Population analysis using the SCF density.

 **********************************************************************

 Alpha  occ. eigenvalues --  -14.29625  -0.82926  -0.51036  -0.47563  -0.28953
 Alpha  occ. eigenvalues --   -0.22340
 Alpha virt. eigenvalues --    0.10722   0.17676   0.27879   0.66492   0.70863
 Alpha virt. eigenvalues --    0.71178   0.71270   0.79572   0.88779   0.92352
 Alpha virt. eigenvalues --    1.19301   1.46097   1.47844   1.82278   1.86667
 Alpha virt. eigenvalues --    1.88878   2.05179   2.11445   2.13948   2.38475
 Alpha virt. eigenvalues --    2.56945   2.69344   2.69674   2.86555   2.93958
 Alpha virt. eigenvalues --    3.38547   3.47191   3.74601   4.16674
  Beta  occ. eigenvalues --  -14.29086  -0.81589  -0.47485  -0.47114  -0.21737
  Beta virt. eigenvalues --   -0.10897   0.11301   0.18059   0.31110   0.69934
  Beta virt. eigenvalues --    0.71064   0.71651   0.72676   0.88561   0.89432
  Beta virt. eigenvalues --    0.93271   1.20386   1.47183   1.48081   1.90018
  Beta virt. eigenvalues --    1.92442   2.01024   2.06065   2.11972   2.19944
  Beta virt. eigenvalues --    2.39455   2.61596   2.70089   2.70566   2.87130
  Beta virt. eigenvalues --    2.95708   3.39363   3.47757   3.77876   4.18311
     Alpha Molecular Orbital Coefficients:
                           1         2         3         4         5
                           O         O         O         O         O
     Eigenvalues --   -14.29625  -0.82926  -0.51036  -0.47563  -0.28953
   1 1   N  1S          0.99261  -0.20506   0.01955   0.00000   0.04528
   2        2S          0.03478   0.42606  -0.03653   0.00000  -0.10054
   3        2PX         0.00001   0.00698   0.34734   0.23199  -0.28695
   4        2PY        -0.00000  -0.00006   0.00006   0.00014  -0.00008
   5        2PZ        -0.00001  -0.00388  -0.19323   0.41701   0.15964
   6        3S          0.00476   0.42733  -0.06579  -0.00001  -0.23145
   7        3PX         0.00011   0.00766   0.15384   0.10891  -0.18605
   8        3PY         0.00000  -0.00003   0.00002   0.00006  -0.00005
   9        3PZ        -0.00006  -0.00426  -0.08559   0.19579   0.10350
  10        4XX        -0.00830  -0.00086   0.00931  -0.01006   0.00363
  11        4YY        -0.00847  -0.02024   0.00191   0.00000   0.00318
  12        4ZZ        -0.00835  -0.00348  -0.00464   0.01006   0.00625
  13        4XY        -0.00000   0.00000  -0.00001  -0.00001   0.00001
  14        4XZ        -0.00004  -0.00244  -0.01298  -0.00721   0.00242
  15        4YZ         0.00000   0.00000   0.00000  -0.00001  -0.00000
  16 2   H  1S          0.00029   0.14369  -0.12963   0.25056   0.06931
  17        2S         -0.00058   0.02282  -0.07329   0.15613   0.08862
  18        3PX        -0.00000  -0.00018   0.00885   0.00514  -0.00768
  19        3PY         0.00000  -0.00000   0.00000   0.00000  -0.00000
  20        3PZ         0.00003  -0.01774   0.00649  -0.01043  -0.00032
  21 3   H  1S          0.00028   0.14321   0.27317   0.00002  -0.05882
  22        2S         -0.00087   0.01031   0.16988   0.00003  -0.04866
  23        3PX         0.00003  -0.01275   0.00050   0.00557   0.02370
  24        3PY         0.00000  -0.00000  -0.00000   0.00000  -0.00000
  25        3PZ        -0.00001   0.00709  -0.00028   0.01002  -0.01319
  26 4   H  1S          0.00029   0.14369  -0.12961  -0.25057   0.06928
  27        2S         -0.00058   0.02282  -0.07328  -0.15615   0.08860
  28        3PX        -0.00003   0.01498  -0.00085  -0.01157  -0.00378
  29        3PY         0.00000   0.00001  -0.00000  -0.00001  -0.00000
  30        3PZ        -0.00001   0.00950  -0.01094  -0.00114   0.00670
  31 5   H  1S         -0.00001   0.03406   0.19852  -0.00000   0.39259
  32        2S          0.00016   0.02322   0.17035  -0.00001   0.62559
  33        3PX         0.00005  -0.00385  -0.00993   0.00074  -0.00304
  34        3PY        -0.00000   0.00000   0.00000   0.00000   0.00000
  35        3PZ        -0.00003   0.00214   0.00553   0.00133   0.00169
                           6         7         8         9        10
                           O         V         V         V         V
     Eigenvalues --    -0.22340   0.10722   0.17676   0.27879   0.66492
   1 1   N  1S         -0.00003  -0.13081  -0.00000   0.06193   0.02280
   2        2S          0.00006   0.18607  -0.00000  -0.08097   0.12575
   3        2PX        -0.00020  -0.14816  -0.19208  -0.30632   0.26510
   4        2PY         0.60285  -0.00010  -0.00011  -0.00005   0.00009
   5        2PZ        -0.00009   0.08241  -0.34536   0.17031  -0.14729
   6        3S          0.00009   1.80337   0.00000  -1.10010  -0.19943
   7        3PX        -0.00018  -0.31624  -0.54111  -1.13602  -0.29084
   8        3PY         0.52834  -0.00025  -0.00032  -0.00013  -0.00006
   9        3PZ        -0.00007   0.17588  -0.97293   0.63190   0.16130
  10        4XX         0.00001  -0.03384  -0.00431   0.03006   0.12618
  11        4YY        -0.00002  -0.03904  -0.00000   0.01916  -0.02800
  12        4ZZ         0.00001  -0.03688   0.00431   0.01205   0.07975
  13        4XY         0.00143   0.00000   0.00000   0.00001   0.00003
  14        4XZ        -0.00000  -0.00283  -0.00309  -0.01672  -0.04322
  15        4YZ        -0.00079  -0.00000   0.00001  -0.00001   0.00002
  16 2   H  1S         -0.00002  -0.08082   0.06855  -0.03632   0.12589
  17        2S         -0.00002  -1.15507   1.49172  -0.50744  -0.01374
  18        3PX        -0.00001  -0.00402  -0.00537  -0.00963  -0.01525
  19        3PY         0.01945  -0.00000  -0.00000  -0.00000   0.00001
  20        3PZ         0.00000  -0.00985   0.00217   0.00297   0.04054
  21 3   H  1S         -0.00002  -0.05371  -0.00001   0.23218   0.61580
  22        2S          0.00003  -0.42850  -0.00009   3.14614  -0.46503
  23        3PX        -0.00000  -0.00413  -0.00510   0.01577   0.06834
  24        3PY         0.01947  -0.00000  -0.00000  -0.00000   0.00000
  25        3PZ        -0.00001   0.00229  -0.00917  -0.00876  -0.03808
  26 4   H  1S         -0.00002  -0.08084  -0.06854  -0.03620   0.12563
  27        2S         -0.00002  -1.15513  -1.49164  -0.50757  -0.01392
  28        3PX        -0.00001   0.00625   0.00468  -0.00761  -0.04250
  29        3PY         0.01945   0.00000   0.00000  -0.00000  -0.00001
  30        3PZ        -0.00001   0.00861  -0.00342   0.00662  -0.00845
  31 5   H  1S          0.00004   0.05634   0.00001   0.05369   0.90291
  32        2S          0.00006   0.29855   0.00001  -1.59632  -0.71096
  33        3PX         0.00000   0.00514  -0.00274  -0.03451  -0.04557
  34        3PY         0.00444  -0.00000  -0.00000   0.00000   0.00000
  35        3PZ        -0.00000  -0.00286  -0.00492   0.01923   0.02536
                          11        12        13        14        15
                           V         V         V         V         V
     Eigenvalues --     0.70863   0.71178   0.71270   0.79572   0.88779
   1 1   N  1S         -0.00001   0.03644   0.00007   0.06188  -0.00001
   2        2S          0.00018   0.00271  -0.00000  -0.17930   0.00004
   3        2PX        -0.19392  -0.32486  -0.00020  -0.01686   0.41792
   4        2PY        -0.00012   0.00159  -0.99888  -0.00002   0.00025
   5        2PZ        -0.34943   0.18061   0.00044   0.00923   0.75188
   6        3S         -0.00024  -0.22073  -0.00059   0.25015   0.00002
   7        3PX         0.67255   1.06065   0.00136  -0.09942  -0.74274
   8        3PY         0.00040  -0.00147   1.04446   0.00006  -0.00044
   9        3PZ         1.21036  -0.58962  -0.00110   0.05574  -1.33642
  10        4XX         0.12257   0.02404   0.00000   0.16130   0.17566
  11        4YY         0.00005  -0.05300  -0.00009  -0.15134   0.00001
  12        4ZZ        -0.12255   0.15470   0.00022   0.10625  -0.17567
  13        4XY         0.00007   0.00008  -0.00126   0.00008   0.00011
  14        4XZ         0.08788   0.12161   0.00020  -0.05117   0.12584
  15        4YZ         0.00003   0.00006   0.00070   0.00004   0.00006
  16 2   H  1S         -0.63687   0.60299   0.00102   0.39289  -0.43577
  17        2S         -0.16559  -0.05226  -0.00001  -0.28678   1.38103
  18        3PX         0.04317   0.06244   0.00011  -0.03221   0.01872
  19        3PY         0.00002   0.00005  -0.01686   0.00001   0.00001
  20        3PZ         0.01384   0.03034   0.00003   0.06853  -0.15697
  21 3   H  1S         -0.00005  -0.29451  -0.00049   0.74718   0.00016
  22        2S          0.00032  -0.26286  -0.00017  -0.98192  -0.00076
  23        3PX         0.04724   0.07775   0.00011   0.01276   0.01534
  24        3PY         0.00003   0.00003  -0.00488   0.00002   0.00001
  25        3PZ         0.08504  -0.04323  -0.00006  -0.00704   0.02750
  26 4   H  1S          0.63666   0.60331   0.00102   0.39310   0.43557
  27        2S          0.16552  -0.05221  -0.00001  -0.28659  -1.38042
  28        3PX        -0.01103   0.00714   0.00004  -0.07519  -0.14319
  29        3PY        -0.00000   0.00002  -0.01686  -0.00001  -0.00008
  30        3PZ         0.04397  -0.06904  -0.00010  -0.00876  -0.06683
  31 5   H  1S          0.00028   0.30312   0.00057  -0.78985  -0.00009
  32        2S         -0.00014  -0.33606  -0.00067   1.07447   0.00028
  33        3PX         0.02345  -0.01554  -0.00002  -0.04696  -0.01270
  34        3PY         0.00001  -0.00004   0.02823   0.00001  -0.00001
  35        3PZ         0.04198   0.00865   0.00000   0.02616  -0.02275
                          16        17        18        19        20
                           V         V         V         V         V
     Eigenvalues --     0.92352   1.19301   1.46097   1.47844   1.82278
   1 1   N  1S          0.01307  -0.06269  -0.00000   0.00000   0.00000
   2        2S         -0.46552  -1.65712  -0.00009   0.00000  -0.00010
   3        2PX         0.69099  -0.21493  -0.00002  -0.00000   0.04186
   4        2PY         0.00020  -0.00001   0.01996  -0.00000   0.00002
   5        2PZ        -0.38394   0.11940   0.00000  -0.00000   0.07524
   6        3S          0.68171   4.52920   0.00025  -0.00000   0.00031
   7        3PX        -1.57778   0.83972   0.00018   0.00009  -0.18272
   8        3PY        -0.00038  -0.00011  -0.03334   0.00000  -0.00011
   9        3PZ         0.87662  -0.46659  -0.00009   0.00016  -0.32854
  10        4XX        -0.14468  -0.27820  -0.00019  -0.00035  -0.02281
  11        4YY        -0.09439  -0.14279   0.00018   0.00034   0.00018
  12        4ZZ         0.04940  -0.32088  -0.00001   0.00000   0.02272
  13        4XY         0.00007  -0.00008   0.57778   0.33489   0.00002
  14        4XZ         0.18054  -0.03961  -0.00020  -0.00036  -0.01615
  15        4YZ         0.00005  -0.00003  -0.32135   0.60213   0.00005
  16 2   H  1S          0.30698  -0.11619   0.00002  -0.00008   0.07729
  17        2S         -1.16469  -0.50563   0.00000  -0.00005   0.15666
  18        3PX         0.01956   0.01859  -0.00006  -0.00017  -0.22358
  19        3PY         0.00000  -0.00002  -0.18199   0.33934  -0.00001
  20        3PZ         0.10928   0.02178   0.00001  -0.00001   0.01588
  21 3   H  1S         -0.47604   0.22356  -0.00004  -0.00000   0.00025
  22        2S          2.34867  -2.84623  -0.00023   0.00000  -0.00051
  23        3PX        -0.12767   0.11469  -0.00006  -0.00008   0.22842
  24        3PY         0.00001  -0.00005   0.42710  -0.00002   0.00013
  25        3PZ         0.07101  -0.06383  -0.00011  -0.00015   0.41032
  26 4   H  1S          0.30696  -0.11603   0.00002   0.00008  -0.07743
  27        2S         -1.16568  -0.50530   0.00000   0.00005  -0.15661
  28        3PX        -0.08261  -0.00871   0.00001   0.00017   0.13155
  29        3PY        -0.00006  -0.00004  -0.18202  -0.33932  -0.00005
  30        3PZ        -0.07433  -0.02723   0.00014   0.00002  -0.18177
  31 5   H  1S         -0.00533   0.16127   0.00004  -0.00000  -0.00001
  32        2S         -0.67573   0.76641   0.00004  -0.00000   0.00018
  33        3PX         0.04909  -0.00422   0.00001  -0.00003   0.38454
  34        3PY        -0.00001  -0.00003   0.18148  -0.00001   0.00023
  35        3PZ        -0.02732   0.00226  -0.00007  -0.00005   0.69077
                          21        22        23        24        25
                           V         V         V         V         V
     Eigenvalues --     1.86667   1.88878   2.05179   2.11445   2.13948
   1 1   N  1S          0.01341   0.00000   0.00000  -0.03744   0.00002
   2        2S         -0.22506  -0.00027   0.00001  -0.34718   0.00029
   3        2PX        -0.22259  -0.00013  -0.06210   0.04174   0.02588
   4        2PY        -0.00004   0.01761  -0.00004  -0.00002   0.00002
   5        2PZ         0.12386   0.00007  -0.11166  -0.02320   0.04641
   6        3S          0.05714   0.00037   0.00004   0.89825  -0.00067
   7        3PX         0.41484   0.00012   0.47432  -0.53898  -0.20797
   8        3PY         0.00009  -0.15507   0.00028  -0.00036  -0.00012
   9        3PZ        -0.23102  -0.00001   0.85281   0.29963  -0.37359
  10        4XX         0.33173   0.00031  -0.37492   0.12034   0.31570
  11        4YY        -0.34148  -0.00040   0.00007  -0.85982   0.00049
  12        4ZZ        -0.01853   0.00003   0.37485   0.45342  -0.31609
  13        4XY         0.00020  -0.28870  -0.00025   0.00057   0.00019
  14        4XZ        -0.32578  -0.00008  -0.26866   0.31004   0.22650
  15        4YZ        -0.00005   0.16058  -0.00016   0.00024   0.00008
  16 2   H  1S          0.09071  -0.00007  -0.53893  -0.52800   0.33574
  17        2S          0.01523  -0.00008  -0.20602  -0.12222   0.02854
  18        3PX        -0.18895  -0.00004  -0.49269   0.26117  -0.32775
  19        3PY         0.00001   0.10261  -0.00034   0.00025   0.00000
  20        3PZ         0.02810  -0.00001  -0.16246  -0.19495   0.10566
  21 3   H  1S         -0.30241  -0.00014   0.00010   0.14096   0.00018
  22        2S          0.31777   0.00020  -0.00016   0.08486   0.00022
  23        3PX        -0.26069  -0.00019  -0.06338  -0.01818   0.27476
  24        3PY        -0.00017   0.22379  -0.00004   0.00032   0.00016
  25        3PZ         0.14533   0.00003  -0.11399   0.01034   0.49384
  26 4   H  1S          0.09060  -0.00007   0.53892  -0.52823  -0.33536
  27        2S          0.01506  -0.00008   0.20603  -0.12225  -0.02851
  28        3PX        -0.12334  -0.00004   0.12187   0.30355   0.26250
  29        3PY         0.00005   0.10261   0.00012   0.00028  -0.00004
  30        3PZ         0.14543  -0.00001  -0.50433  -0.11923  -0.22276
  31 5   H  1S          0.26969   0.00017  -0.00004   0.00689  -0.00001
  32        2S         -0.42597  -0.00026   0.00014  -0.01598  -0.00004
  33        3PX         0.51399   0.00025  -0.08861   0.07544  -0.26481
  34        3PY        -0.00059   0.90705  -0.00005  -0.00032  -0.00016
  35        3PZ        -0.28608  -0.00044  -0.15909  -0.04227  -0.47549
                          26        27        28        29        30
                           V         V         V         V         V
     Eigenvalues --     2.38475   2.56945   2.69344   2.69674   2.86555
   1 1   N  1S         -0.00002   0.06817  -0.00008   0.00000  -0.00000
   2        2S         -0.00012   0.41518  -0.00035   0.00000  -0.00022
   3        2PX         0.00008  -0.15558   0.00010   0.00017  -0.19014
   4        2PY        -0.10795  -0.00003   0.00699  -0.00001  -0.00011
   5        2PZ        -0.00001   0.08652  -0.00006   0.00031  -0.34247
   6        3S          0.00082  -1.96892   0.00219  -0.00001   0.00041
   7        3PX         0.00082  -1.31146   0.00130   0.00019  -0.32030
   8        3PY        -0.39696  -0.00023  -0.01343   0.00003  -0.00019
   9        3PZ        -0.00033   0.72906  -0.00071   0.00036  -0.57782
  10        4XX        -0.00004  -0.42196   0.00097   0.00008  -0.30084
  11        4YY         0.00035   0.64038  -0.00091   0.00044  -0.00003
  12        4ZZ        -0.00019  -0.04427  -0.00020  -0.00052   0.30092
  13        4XY         0.11281  -0.00071  -0.69784   0.42922   0.00033
  14        4XZ        -0.00021   0.35059  -0.00065  -0.00008  -0.21521
  15        4YZ        -0.06274   0.00020   0.38974   0.76907   0.00084
  16 2   H  1S          0.00009   0.07342   0.00001   0.00012   0.08039
  17        2S          0.00004  -0.18145   0.00005  -0.00044   0.50047
  18        3PX        -0.00043   0.38884  -0.00003  -0.00008   0.37777
  19        3PY         0.66389  -0.00002  -0.35710  -0.71470  -0.00055
  20        3PZ         0.00010   0.06352   0.00010   0.00043  -0.46421
  21 3   H  1S         -0.00039   0.92480  -0.00127   0.00000  -0.00004
  22        2S         -0.00111   2.15603  -0.00213   0.00001  -0.00123
  23        3PX         0.00012  -0.31418   0.00020  -0.00029   0.36809
  24        3PY         0.52338   0.00106   0.83189  -0.00132   0.00022
  25        3PZ        -0.00024   0.17489  -0.00039  -0.00051   0.66079
  26 4   H  1S          0.00009   0.07351   0.00001  -0.00012  -0.08037
  27        2S          0.00004  -0.18191   0.00005   0.00043  -0.49977
  28        3PX        -0.00050   0.15063   0.00000   0.00021  -0.59389
  29        3PY         0.66391  -0.00016  -0.35485   0.71581   0.00042
  30        3PZ        -0.00002  -0.36346   0.00015  -0.00021   0.07761
  31 5   H  1S          0.00001  -0.06094   0.00010  -0.00000   0.00003
  32        2S          0.00040  -0.78070   0.00081  -0.00000   0.00032
  33        3PX        -0.00028   0.58962  -0.00070   0.00010  -0.09821
  34        3PY        -0.24384  -0.00048  -0.30585   0.00049  -0.00006
  35        3PZ         0.00024  -0.32844   0.00049   0.00017  -0.17643
                          31        32        33        34        35
                           V         V         V         V         V
     Eigenvalues --     2.93958   3.38547   3.47191   3.74601   4.16674
   1 1   N  1S         -0.05047  -0.23339   0.00004  -0.19236  -0.38590
   2        2S          0.12953   0.80942  -0.00022   0.49851   0.55897
   3        2PX        -0.15750  -0.31180   0.43844   0.63000  -0.14570
   4        2PY        -0.00010  -0.00020   0.00026   0.00014   0.00018
   5        2PZ         0.08712   0.17373   0.78756  -0.35068   0.08113
   6        3S          0.73261   2.15798  -0.00004   1.12796   2.61803
   7        3PX        -0.24264  -0.17081   0.36097   0.48540   0.23447
   8        3PY        -0.00011  -0.00018   0.00021   0.00005  -0.00005
   9        3PZ         0.13424   0.09531   0.64800  -0.27016  -0.13025
  10        4XX         0.41957  -0.50600  -0.98634  -0.16298  -1.88197
  11        4YY        -0.31973  -1.04889   0.00013  -0.57983  -0.98388
  12        4ZZ        -0.23907   0.13006   0.98660  -1.09940  -1.77925
  13        4XY         0.00054   0.00035  -0.00059  -0.00020  -0.00026
  14        4XZ        -0.61301   0.59095  -0.70784  -0.87001   0.09503
  15        4YZ        -0.00038   0.00036  -0.00027  -0.00024  -0.00014
  16 2   H  1S         -0.06998  -0.59612  -0.87863   0.50012   0.52890
  17        2S         -0.31558  -0.49578  -0.41552  -0.02563  -0.28158
  18        3PX         0.62480  -0.22111   0.19974   0.19760  -0.05191
  19        3PY         0.00036  -0.00012   0.00003   0.00008   0.00004
  20        3PZ         0.34641   0.81085   0.95688  -0.46417  -0.56409
  21 3   H  1S         -0.45351   0.16430  -0.00039  -0.47419   0.55197
  22        2S          0.07541  -0.41488  -0.00052  -0.55770  -1.03801
  23        3PX        -0.08596   0.17522   0.17433   1.02946  -0.87559
  24        3PY        -0.00043   0.00001   0.00010  -0.00003   0.00007
  25        3PZ         0.04864  -0.09746   0.31244  -0.57294   0.48725
  26 4   H  1S         -0.07029  -0.59564   0.87905   0.49961   0.52921
  27        2S         -0.31651  -0.49549   0.41587  -0.02578  -0.28147
  28        3PX         0.03410  -0.80508   0.70818   0.49826   0.45203
  29        3PY         0.00001  -0.00046   0.00051   0.00026   0.00034
  30        3PZ        -0.71355  -0.23946   0.67442   0.07652   0.34182
  31 5   H  1S          0.04749  -0.03655  -0.00000  -0.16284   0.17409
  32        2S          0.07552   0.08481   0.00018   0.03951   0.33820
  33        3PX        -0.29215   0.15170  -0.05409   0.46446  -0.34510
  34        3PY         0.00015  -0.00000  -0.00003  -0.00003   0.00002
  35        3PZ         0.16245  -0.08446  -0.09712  -0.25855   0.19218
     Beta Molecular Orbital Coefficients:
                           1         2         3         4         5
                           O         O         O         O         O
     Eigenvalues --   -14.29086  -0.81589  -0.47485  -0.47114  -0.21737
   1 1   N  1S          0.99271  -0.20402   0.01018  -0.00000  -0.00005
   2        2S          0.03442   0.41883  -0.02208   0.00000   0.00011
   3        2PX        -0.00016  -0.01216   0.36734   0.23015  -0.00011
   4        2PY        -0.00000  -0.00005   0.00009   0.00014   0.59738
   5        2PZ         0.00009   0.00677  -0.20430   0.41380  -0.00014
   6        3S          0.00445   0.42436  -0.04948  -0.00000   0.00024
   7        3PX         0.00006   0.00222   0.16886   0.10951  -0.00011
   8        3PY         0.00000  -0.00002   0.00004   0.00006   0.53397
   9        3PZ        -0.00003  -0.00123  -0.09392   0.19691  -0.00011
  10        4XX        -0.00826  -0.00400   0.00916  -0.01206   0.00000
  11        4YY        -0.00825  -0.01829   0.00148   0.00000  -0.00002
  12        4ZZ        -0.00814  -0.00291  -0.00468   0.01206   0.00000
  13        4XY         0.00000   0.00001  -0.00001  -0.00001  -0.00180
  14        4XZ         0.00011   0.00102  -0.01287  -0.00865   0.00000
  15        4YZ        -0.00000   0.00000   0.00000  -0.00001   0.00100
  16 2   H  1S          0.00024   0.14841  -0.13374   0.25044  -0.00004
  17        2S         -0.00055   0.02577  -0.08314   0.15799  -0.00006
  18        3PX        -0.00002  -0.00016   0.00916   0.00606  -0.00000
  19        3PY         0.00000  -0.00000   0.00000   0.00000   0.01944
  20        3PZ         0.00006  -0.01813   0.00630  -0.01018  -0.00000
  21 3   H  1S          0.00037   0.14182   0.30304  -0.00001  -0.00004
  22        2S         -0.00074   0.01842   0.23126   0.00001  -0.00005
  23        3PX        -0.00003  -0.01253  -0.00121   0.00561  -0.00001
  24        3PY         0.00000  -0.00000  -0.00000   0.00000   0.01961
  25        3PZ         0.00002   0.00697   0.00067   0.01008  -0.00000
  26 4   H  1S          0.00024   0.14841  -0.13376  -0.25043  -0.00004
  27        2S         -0.00055   0.02577  -0.08316  -0.15799  -0.00006
  28        3PX        -0.00006   0.01531  -0.00052  -0.01185  -0.00001
  29        3PY         0.00000   0.00001  -0.00000  -0.00001   0.01944
  30        3PZ        -0.00002   0.00970  -0.01111  -0.00022  -0.00001
  31 5   H  1S         -0.00001   0.02079   0.09990  -0.00001  -0.00008
  32        2S          0.00013   0.01459   0.06895  -0.00002  -0.00016
  33        3PX         0.00005  -0.00305  -0.00828   0.00059   0.00000
  34        3PY        -0.00000  -0.00000   0.00000   0.00000   0.00377
  35        3PZ        -0.00003   0.00170   0.00461   0.00106  -0.00000
                           6         7         8         9        10
                           V         V         V         V         V
     Eigenvalues --    -0.10897   0.11301   0.18059   0.31110   0.69934
   1 1   N  1S          0.06039  -0.12468   0.00000   0.06525   0.01926
   2        2S         -0.12161   0.17314  -0.00000  -0.08798   0.06183
   3        2PX        -0.23434  -0.17266  -0.19093  -0.29423   0.34373
   4        2PY         0.00015  -0.00011  -0.00011  -0.00005   0.00039
   5        2PZ         0.13036   0.09603  -0.34329   0.16357  -0.19051
   6        3S         -0.41634   1.74382  -0.00001  -1.15133   0.01328
   7        3PX        -0.19144  -0.37177  -0.54486  -1.15168  -0.70742
   8        3PY         0.00017  -0.00026  -0.00032  -0.00010  -0.00045
   9        3PZ         0.10648   0.20675  -0.97968   0.64066   0.39121
  10        4XX         0.01131  -0.03269  -0.00107   0.03011   0.14105
  11        4YY         0.00400  -0.03778   0.00000   0.01698  -0.03512
  12        4ZZ         0.00701  -0.03548   0.00107   0.00850   0.02595
  13        4XY         0.00000   0.00001   0.00000   0.00001   0.00001
  14        4XZ        -0.00401  -0.00260  -0.00077  -0.02006  -0.10745
  15        4YZ        -0.00000  -0.00000   0.00001  -0.00001  -0.00000
  16 2   H  1S          0.05437  -0.07741   0.06480  -0.03959  -0.06940
  17        2S          0.14114  -1.16910   1.49924  -0.47507  -0.03546
  18        3PX        -0.00741  -0.00512  -0.00523  -0.01126  -0.05002
  19        3PY         0.00001  -0.00000  -0.00000  -0.00000   0.00000
  20        3PZ         0.00124  -0.00928   0.00128   0.00276   0.03686
  21 3   H  1S          0.00592  -0.03990  -0.00001   0.22762   0.89470
  22        2S          0.10846  -0.31412  -0.00008   3.18598  -0.66787
  23        3PX         0.02537  -0.00224  -0.00515   0.01388   0.03334
  24        3PY         0.00000  -0.00000  -0.00000  -0.00000  -0.00000
  25        3PZ        -0.01412   0.00124  -0.00927  -0.00770  -0.01872
  26 4   H  1S          0.05435  -0.07743  -0.06479  -0.03944  -0.07113
  27        2S          0.14111  -1.16919  -1.49914  -0.47518  -0.03606
  28        3PX        -0.00496   0.00519   0.00384  -0.00828  -0.05768
  29        3PY         0.00001   0.00000   0.00000  -0.00000  -0.00000
  30        3PZ         0.00564   0.00924  -0.00377   0.00812   0.02293
  31 5   H  1S          0.29388   0.06259   0.00001   0.03380   0.39660
  32        2S          0.67981   0.31777   0.00000  -1.64481  -0.06915
  33        3PX        -0.00922   0.00014  -0.00233  -0.01802  -0.04623
  34        3PY         0.00000  -0.00000  -0.00000   0.00000  -0.00001
  35        3PZ         0.00514  -0.00008  -0.00418   0.01005   0.02568
                          11        12        13        14        15
                           V         V         V         V         V
     Eigenvalues --     0.71064   0.71651   0.72676   0.88561   0.89432
   1 1   N  1S         -0.00000   0.00002   0.06290   0.03901  -0.00004
   2        2S          0.00022  -0.00001   0.00178  -0.31437   0.00039
   3        2PX        -0.19840   0.00038  -0.19822   0.03066  -0.41724
   4        2PY        -0.00012  -1.00221   0.00015   0.00005  -0.00025
   5        2PZ        -0.35851   0.00012   0.11007  -0.01828  -0.75039
   6        3S         -0.00005  -0.00018  -0.24622   0.53956  -0.00072
   7        3PX         0.68401  -0.00041   0.75378  -0.32552   0.73004
   8        3PY         0.00040   1.04192   0.00005  -0.00007   0.00043
   9        3PZ         1.23325  -0.00011  -0.41858   0.18322   1.31221
  10        4XX         0.11846   0.00003   0.12224   0.06542  -0.17409
  11        4YY         0.00002  -0.00004  -0.10351  -0.13919   0.00016
  12        4ZZ        -0.11832   0.00001   0.20069   0.03591   0.17400
  13        4XY         0.00007   0.00259   0.00010   0.00006  -0.00011
  14        4XZ         0.08468  -0.00002   0.07313  -0.02802  -0.12466
  15        4YZ         0.00003  -0.00144   0.00007   0.00003  -0.00007
  16 2   H  1S         -0.63385   0.00012   0.70024   0.24496   0.44604
  17        2S         -0.18828   0.00005  -0.14819  -0.40545  -1.36977
  18        3PX         0.04243  -0.00000   0.03958  -0.03306  -0.01908
  19        3PY         0.00002  -0.01762   0.00003   0.00001  -0.00001
  20        3PZ         0.01613   0.00000   0.06285   0.05648   0.15739
  21 3   H  1S          0.00100   0.00034   0.21344   0.40004  -0.00055
  22        2S         -0.00056  -0.00024  -0.64100  -0.38743   0.00088
  23        3PX         0.04762   0.00000   0.10075  -0.05865  -0.01604
  24        3PY         0.00003  -0.00405   0.00002   0.00001  -0.00001
  25        3PZ         0.08570  -0.00000  -0.05601   0.03264  -0.02896
  26 4   H  1S          0.63316   0.00012   0.70086   0.24389  -0.44649
  27        2S          0.18819   0.00006  -0.14808  -0.40211   1.37041
  28        3PX        -0.00882   0.00000  -0.03255  -0.06506   0.14392
  29        3PY        -0.00000  -0.01762  -0.00001  -0.00001   0.00009
  30        3PZ         0.04464   0.00001  -0.06673  -0.00154   0.06677
  31 5   H  1S          0.00042   0.00017   0.34859  -1.13492   0.00145
  32        2S          0.00018  -0.00003  -0.22065   1.14950  -0.00155
  33        3PX         0.01998  -0.00002  -0.04243  -0.00513   0.00996
  34        3PY         0.00001   0.02367   0.00001   0.00000   0.00001
  35        3PZ         0.03588   0.00000   0.02364   0.00290   0.01784
                          16        17        18        19        20
                           V         V         V         V         V
     Eigenvalues --     0.93271   1.20386   1.47183   1.48081   1.90018
   1 1   N  1S          0.00697  -0.06335  -0.00000   0.00000   0.00000
   2        2S         -0.44937  -1.64573  -0.00010   0.00000  -0.00004
   3        2PX         0.70664  -0.22935  -0.00002  -0.00000   0.03679
   4        2PY         0.00017   0.00000   0.02452  -0.00000   0.00002
   5        2PZ        -0.39276   0.12742   0.00001  -0.00001   0.06606
   6        3S          0.68876   4.51846   0.00027  -0.00000   0.00017
   7        3PX        -1.54983   0.87779   0.00020   0.00009  -0.17241
   8        3PY        -0.00036  -0.00012  -0.03273   0.00000  -0.00010
   9        3PZ         0.86131  -0.48776  -0.00010   0.00016  -0.30965
  10        4XX        -0.15366  -0.27987  -0.00019  -0.00034  -0.00628
  11        4YY        -0.07883  -0.14036   0.00019   0.00034   0.00023
  12        4ZZ         0.04252  -0.32464  -0.00002   0.00000   0.00615
  13        4XY         0.00006  -0.00009   0.58115   0.33429   0.00002
  14        4XZ         0.18245  -0.04155  -0.00020  -0.00036  -0.00420
  15        4YZ         0.00005  -0.00003  -0.32315   0.60116   0.00005
  16 2   H  1S          0.26975  -0.11833   0.00003  -0.00007   0.08675
  17        2S         -1.12445  -0.48325   0.00000  -0.00005   0.13897
  18        3PX         0.02351   0.02154  -0.00006  -0.00017  -0.32948
  19        3PY         0.00000  -0.00002  -0.18508   0.34027  -0.00004
  20        3PZ         0.10503   0.01896   0.00001  -0.00001   0.01878
  21 3   H  1S         -0.50333   0.21189  -0.00004  -0.00000   0.00032
  22        2S          2.34252  -2.88602  -0.00026   0.00000  -0.00039
  23        3PX        -0.11814   0.12234  -0.00006  -0.00008   0.28464
  24        3PY         0.00000  -0.00005   0.43197  -0.00006   0.00017
  25        3PZ         0.06570  -0.06809  -0.00011  -0.00015   0.51134
  26 4   H  1S          0.26964  -0.11817   0.00003   0.00007  -0.08692
  27        2S         -1.12510  -0.48292   0.00000   0.00005  -0.13895
  28        3PX        -0.07688  -0.00476   0.00001   0.00018   0.18991
  29        3PY        -0.00006  -0.00004  -0.18517  -0.34023  -0.00004
  30        3PZ        -0.07543  -0.02824   0.00014   0.00002  -0.27027
  31 5   H  1S          0.17400   0.18535   0.00005  -0.00000  -0.00003
  32        2S         -0.82354   0.76376   0.00004  -0.00000   0.00018
  33        3PX         0.04654  -0.01333   0.00001  -0.00002   0.30357
  34        3PY        -0.00001  -0.00002   0.13939  -0.00002   0.00018
  35        3PZ        -0.02590   0.00735  -0.00005  -0.00004   0.54537
                          21        22        23        24        25
                           V         V         V         V         V
     Eigenvalues --     1.92442   2.01024   2.06065   2.11972   2.19944
   1 1   N  1S          0.00820  -0.00002   0.00000  -0.03819  -0.00000
   2        2S         -0.25016  -0.00031   0.00001  -0.36414  -0.00020
   3        2PX        -0.21903  -0.00002  -0.06835   0.03423  -0.01379
   4        2PY        -0.00003   0.00408  -0.00004  -0.00001  -0.00001
   5        2PZ         0.12188   0.00001  -0.12288  -0.01905  -0.02463
   6        3S          0.20434   0.00072   0.00003   0.93655   0.00040
   7        3PX         0.52302  -0.00022   0.51146  -0.50301   0.10677
   8        3PY         0.00003  -0.18448   0.00030  -0.00028   0.00006
   9        3PZ        -0.29115   0.00018   0.91948   0.27982   0.19133
  10        4XX         0.34595   0.00022  -0.40527   0.13671  -0.27797
  11        4YY        -0.34626  -0.00055   0.00007  -0.88027  -0.00021
  12        4ZZ        -0.03919   0.00019   0.40521   0.44982   0.27820
  13        4XY         0.00007  -0.29251  -0.00027   0.00069  -0.00016
  14        4XZ        -0.35821   0.00015  -0.29046   0.29120  -0.19950
  15        4YZ         0.00001   0.16270  -0.00016   0.00017  -0.00006
  16 2   H  1S          0.10066  -0.00030  -0.57825  -0.52510  -0.24823
  17        2S          0.02775  -0.00013  -0.22379  -0.11937   0.03288
  18        3PX        -0.21372   0.00012  -0.43081   0.25078   0.33041
  19        3PY         0.00006   0.13208  -0.00033   0.00019   0.00004
  20        3PZ         0.03430  -0.00009  -0.17393  -0.19581  -0.08487
  21 3   H  1S         -0.36541   0.00002   0.00005   0.11556  -0.00018
  22        2S          0.12670   0.00005  -0.00017   0.05737  -0.00027
  23        3PX        -0.25860  -0.00010  -0.12157  -0.02777  -0.19752
  24        3PY        -0.00009   0.32752  -0.00007   0.00016  -0.00012
  25        3PZ         0.14422  -0.00005  -0.21858   0.01546  -0.35504
  26 4   H  1S          0.10056  -0.00030   0.57828  -0.52509   0.24813
  27        2S          0.02762  -0.00013   0.22380  -0.11935  -0.03283
  28        3PX        -0.14162   0.00010   0.07945   0.29865  -0.24640
  29        3PY         0.00010   0.13208   0.00012   0.00022   0.00001
  30        3PZ         0.16312  -0.00013  -0.45778  -0.10985   0.23601
  31 5   H  1S          0.31101   0.00007  -0.00006   0.02041   0.00002
  32        2S         -0.36704  -0.00008   0.00014  -0.01634   0.00004
  33        3PX         0.46080   0.00005  -0.07961   0.08293   0.35206
  34        3PY        -0.00019   0.87202  -0.00005  -0.00065   0.00021
  35        3PZ        -0.25646  -0.00032  -0.14291  -0.04630   0.63221
                          26        27        28        29        30
                           V         V         V         V         V
     Eigenvalues --     2.39455   2.61596   2.70089   2.70566   2.87130
   1 1   N  1S         -0.00001   0.06679  -0.00000  -0.00011   0.00000
   2        2S         -0.00008   0.38128  -0.00000  -0.00048  -0.00021
   3        2PX         0.00009  -0.18934   0.00018   0.00023  -0.19421
   4        2PY        -0.10807  -0.00003   0.00000   0.00251  -0.00011
   5        2PZ        -0.00001   0.10528   0.00032  -0.00013  -0.34977
   6        3S          0.00066  -1.88767   0.00000   0.00293   0.00038
   7        3PX         0.00070  -1.29743   0.00020   0.00189  -0.31652
   8        3PY        -0.38328  -0.00021  -0.00001  -0.01474  -0.00019
   9        3PZ        -0.00027   0.72123   0.00035  -0.00104  -0.57092
  10        4XX        -0.00011  -0.38609   0.00008   0.00108  -0.29502
  11        4YY         0.00040   0.60033   0.00044  -0.00113  -0.00002
  12        4ZZ        -0.00018  -0.05615  -0.00052  -0.00015   0.29508
  13        4XY         0.14940  -0.00096   0.42786  -0.68763   0.00034
  14        4XZ        -0.00016   0.30617  -0.00008  -0.00072  -0.21103
  15        4YZ        -0.08309   0.00034   0.77085   0.38145   0.00085
  16 2   H  1S          0.00009   0.06853   0.00012  -0.00002   0.08320
  17        2S          0.00003  -0.19818  -0.00043   0.00017   0.49702
  18        3PX        -0.00040   0.41748  -0.00008  -0.00029   0.37277
  19        3PY         0.66454  -0.00018  -0.71518  -0.34244  -0.00056
  20        3PZ         0.00010   0.07818   0.00043   0.00004  -0.46957
  21 3   H  1S         -0.00030   0.88169  -0.00000  -0.00161  -0.00003
  22        2S         -0.00096   2.14560  -0.00000  -0.00310  -0.00117
  23        3PX         0.00013  -0.36773  -0.00029   0.00044   0.36369
  24        3PY         0.47546   0.00135   0.00083   0.82373   0.00022
  25        3PZ        -0.00023   0.20472  -0.00051  -0.00051   0.65291
  26 4   H  1S          0.00009   0.06861  -0.00012  -0.00002  -0.08318
  27        2S          0.00003  -0.19868   0.00043   0.00017  -0.49634
  28        3PX        -0.00048   0.15325   0.00021  -0.00009  -0.59578
  29        3PY         0.66456  -0.00033   0.71446  -0.34389   0.00043
  30        3PZ        -0.00004  -0.39554  -0.00020   0.00040   0.07049
  31 5   H  1S         -0.00002  -0.03358   0.00000   0.00009   0.00003
  32        2S          0.00035  -0.78143   0.00000   0.00116   0.00030
  33        3PX        -0.00025   0.58502   0.00012  -0.00094  -0.11298
  34        3PY        -0.31157  -0.00071  -0.00037  -0.36331  -0.00007
  35        3PZ         0.00024  -0.32592   0.00021   0.00064  -0.20297
                          31        32        33        34        35
                           V         V         V         V         V
     Eigenvalues --     2.95708   3.39363   3.47757   3.77876   4.18311
   1 1   N  1S         -0.05793  -0.23038   0.00004  -0.20626  -0.37963
   2        2S          0.13142   0.80286  -0.00021   0.53477   0.53995
   3        2PX        -0.13558  -0.32701   0.43673   0.61826  -0.15829
   4        2PY        -0.00009  -0.00020   0.00026   0.00014   0.00018
   5        2PZ         0.07492   0.18219   0.78448  -0.34412   0.08814
   6        3S          0.85829   2.12310  -0.00004   1.20298   2.58850
   7        3PX        -0.16832  -0.18868   0.36084   0.46970   0.23044
   8        3PY        -0.00010  -0.00018   0.00021   0.00004  -0.00004
   9        3PZ         0.09295   0.10525   0.64778  -0.26141  -0.12801
  10        4XX         0.44597  -0.52391  -0.98850  -0.23791  -1.86689
  11        4YY        -0.36628  -1.03434   0.00012  -0.61686  -0.96526
  12        4ZZ        -0.23684   0.14489   0.98876  -1.14374  -1.74984
  13        4XY         0.00050   0.00036  -0.00059  -0.00021  -0.00026
  14        4XZ        -0.63538   0.62139  -0.70938  -0.84161   0.10834
  15        4YZ        -0.00035   0.00036  -0.00026  -0.00024  -0.00013
  16 2   H  1S         -0.07916  -0.60179  -0.87886   0.50471   0.51787
  17        2S         -0.30773  -0.49452  -0.41426  -0.04276  -0.27751
  18        3PX         0.60163  -0.22964   0.20120   0.18792  -0.05441
  19        3PY         0.00033  -0.00012   0.00003   0.00008   0.00004
  20        3PZ         0.35090   0.81225   0.95415  -0.46729  -0.55398
  21 3   H  1S         -0.51140   0.19261  -0.00039  -0.43359   0.55170
  22        2S         -0.05504  -0.38895  -0.00052  -0.55806  -1.03727
  23        3PX        -0.03402   0.14344   0.17441   0.99695  -0.89986
  24        3PY        -0.00039   0.00001   0.00010  -0.00003   0.00007
  25        3PZ         0.01970  -0.07978   0.31259  -0.55485   0.50076
  26 4   H  1S         -0.07949  -0.60130   0.87927   0.50424   0.51818
  27        2S         -0.30860  -0.49422   0.41460  -0.04289  -0.27739
  28        3PX         0.01811  -0.81076   0.70508   0.49584   0.44212
  29        3PY        -0.00002  -0.00046   0.00051   0.00026   0.00033
  30        3PZ        -0.69628  -0.23295   0.67421   0.08641   0.33861
  31 5   H  1S          0.04297  -0.03360  -0.00000  -0.16323   0.18295
  32        2S          0.12217   0.07722   0.00019   0.03742   0.34261
  33        3PX        -0.32565   0.15409  -0.05861   0.48157  -0.37287
  34        3PY         0.00016  -0.00000  -0.00003  -0.00003   0.00002
  35        3PZ         0.18109  -0.08580  -0.10524  -0.26807   0.20765
     Alpha Density Matrix:
                           1         2         3         4         5
   1 1   N  1S          1.02975
   2        2S         -0.05811   0.19418
   3        2PX        -0.00762   0.01914   0.25686
   4        2PY        -0.00001   0.00002  -0.00005   0.36343
   5        2PZ         0.00424  -0.01065  -0.01621  -0.00002   0.23674
   6        3S         -0.09467   0.20791   0.04655   0.00004  -0.02590
   7        3PX        -0.00688   0.01635   0.13214  -0.00007  -0.01404
   8        3PY        -0.00001   0.00003  -0.00007   0.31851  -0.00003
   9        3PZ         0.00383  -0.00910  -0.01404  -0.00003   0.11472
  10        4XX        -0.00772  -0.00136  -0.00015   0.00000  -0.00541
  11        4YY        -0.00407  -0.00931  -0.00039  -0.00001   0.00022
  12        4ZZ        -0.00738  -0.00223  -0.00110   0.00001   0.00610
  13        4XY        -0.00000   0.00000  -0.00001   0.00086  -0.00000
  14        4XZ         0.00031  -0.00081  -0.00689  -0.00000  -0.00010
  15        4YZ        -0.00000   0.00000  -0.00000  -0.00048  -0.00001
  16 2   H  1S         -0.02858   0.05900  -0.00579  -0.00000   0.14004
  17        2S         -0.00268   0.00347  -0.01451  -0.00000   0.09333
  18        3PX        -0.00014   0.00037   0.00647  -0.00000  -0.00079
  19        3PY        -0.00000   0.00000  -0.00000   0.01173  -0.00000
  20        3PZ         0.00378  -0.00776  -0.00020   0.00000  -0.00559
  21 3   H  1S         -0.02642   0.05696   0.11277   0.00000  -0.06272
  22        2S         -0.00186   0.00305   0.07305   0.00003  -0.04062
  23        3PX         0.00372  -0.00783  -0.00542  -0.00000   0.00606
  24        3PY        -0.00000   0.00000  -0.00000   0.01174  -0.00000
  25        3PZ        -0.00207   0.00436   0.00606  -0.00000   0.00210
  26 4   H  1S         -0.02858   0.05900  -0.12203  -0.00007  -0.06895
  27        2S         -0.00268   0.00347  -0.08694  -0.00004  -0.03690
  28        3PX        -0.00328   0.00679  -0.00179  -0.00001  -0.00532
  29        3PY        -0.00000   0.00000  -0.00001   0.01173  -0.00000
  30        3PZ        -0.00187   0.00377  -0.00592  -0.00000   0.00267
  31 5   H  1S          0.01466  -0.03221  -0.04347   0.00000   0.02418
  32        2S          0.02705  -0.05922  -0.12019  -0.00000   0.06685
  33        3PX         0.00051  -0.00097  -0.00243   0.00000   0.00176
  34        3PY        -0.00000   0.00000  -0.00000   0.00268  -0.00000
  35        3PZ        -0.00028   0.00054   0.00176  -0.00000  -0.00025
                           6         7         8         9        10
   6        3S          0.24053
   7        3PX         0.03621   0.07020
   8        3PY         0.00005  -0.00008   0.27914
   9        3PZ        -0.02015  -0.01113  -0.00003   0.05639
  10        4XX        -0.00186  -0.00035   0.00000  -0.00239   0.00027
  11        4YY        -0.00955  -0.00045  -0.00001   0.00025   0.00012
  12        4ZZ        -0.00267  -0.00081   0.00000   0.00303  -0.00005
  13        4XY        -0.00000  -0.00001   0.00075  -0.00000   0.00000
  14        4XZ        -0.00075  -0.00325  -0.00000  -0.00004  -0.00004
  15        4YZ         0.00000  -0.00000  -0.00042  -0.00000   0.00000
  16 2   H  1S          0.05389  -0.00445  -0.00001   0.06671  -0.00360
  17        2S         -0.00594  -0.01058  -0.00001   0.04592  -0.00195
  18        3PX         0.00112   0.00335  -0.00000  -0.00054   0.00000
  19        3PY         0.00000  -0.00000   0.01028  -0.00000   0.00000
  20        3PZ        -0.00793  -0.00021   0.00000  -0.00256   0.00018
  21 3   H  1S          0.05684   0.05407  -0.00000  -0.03007   0.00220
  22        2S          0.00449   0.03527   0.00002  -0.01961   0.00140
  23        3PX        -0.01097  -0.00382  -0.00000   0.00356   0.00005
  24        3PY         0.00000  -0.00000   0.01028  -0.00000   0.00000
  25        3PZ         0.00610   0.00356  -0.00000   0.00059  -0.00016
  26 4   H  1S          0.05390  -0.05902  -0.00004  -0.03141   0.00144
  27        2S         -0.00593  -0.04459  -0.00003  -0.01523   0.00120
  28        3PX         0.00733  -0.00057  -0.00001  -0.00265   0.00008
  29        3PY         0.00001  -0.00000   0.01028  -0.00000   0.00000
  30        3PZ         0.00323  -0.00298  -0.00000   0.00137  -0.00007
  31 5   H  1S         -0.08937  -0.04224   0.00000   0.02350   0.00325
  32        2S         -0.14608  -0.09001   0.00000   0.05007   0.00384
  33        3PX        -0.00029  -0.00091   0.00000   0.00070  -0.00011
  34        3PY         0.00000  -0.00000   0.00235  -0.00000   0.00000
  35        3PZ         0.00016   0.00070  -0.00000  -0.00005   0.00004
                          11        12        13        14        15
  11        4YY         0.00050
  12        4ZZ         0.00015   0.00024
  13        4XY        -0.00000  -0.00000   0.00000
  14        4XZ         0.00003   0.00001   0.00000   0.00023
  15        4YZ        -0.00000  -0.00000  -0.00000   0.00000   0.00000
  16 2   H  1S         -0.00294   0.00305  -0.00000  -0.00031  -0.00000
  17        2S         -0.00031   0.00239  -0.00000  -0.00002  -0.00000
  18        3PX        -0.00000  -0.00004  -0.00000  -0.00017  -0.00000
  19        3PY        -0.00000   0.00000   0.00003  -0.00000  -0.00002
  20        3PZ         0.00037  -0.00008   0.00000   0.00003   0.00000
  21 3   H  1S         -0.00257  -0.00214  -0.00000  -0.00404   0.00000
  22        2S         -0.00003  -0.00112  -0.00000  -0.00235   0.00000
  23        3PX         0.00033   0.00025   0.00000   0.00004  -0.00000
  24        3PY        -0.00000   0.00000   0.00003  -0.00000  -0.00002
  25        3PZ        -0.00019  -0.00000  -0.00000  -0.00012  -0.00000
  26 4   H  1S         -0.00294  -0.00199   0.00001   0.00331   0.00000
  27        2S         -0.00032  -0.00075   0.00000   0.00224   0.00000
  28        3PX        -0.00032  -0.00019   0.00000   0.00005   0.00000
  29        3PY        -0.00000   0.00000   0.00003   0.00000  -0.00002
  30        3PZ        -0.00019   0.00005   0.00000   0.00014   0.00000
  31 5   H  1S          0.00094   0.00141   0.00000  -0.00171  -0.00000
  32        2S          0.00184   0.00303   0.00000  -0.00075  -0.00000
  33        3PX         0.00005   0.00005   0.00000   0.00013  -0.00000
  34        3PY        -0.00000   0.00000   0.00001  -0.00000  -0.00000
  35        3PZ        -0.00003  -0.00001  -0.00000  -0.00008  -0.00000
                          16        17        18        19        20
  16 2   H  1S          0.10503
  17        2S          0.05804   0.03812
  18        3PX        -0.00042  -0.00053   0.00016
  19        3PY        -0.00000  -0.00000  -0.00000   0.00038
  20        3PZ        -0.00603  -0.00254   0.00001  -0.00000   0.00047
  21 3   H  1S         -0.01891  -0.02196   0.00284   0.00000  -0.00075
  22        2S         -0.02391  -0.01652   0.00187   0.00000   0.00094
  23        3PX         0.00114   0.00264  -0.00015  -0.00000   0.00016
  24        3PY        -0.00000  -0.00000  -0.00000   0.00038  -0.00000
  25        3PZ         0.00265   0.00058   0.00015  -0.00000  -0.00023
  26 4   H  1S         -0.02053  -0.02020  -0.00299  -0.00000  -0.00080
  27        2S         -0.02020  -0.01064  -0.00214  -0.00000   0.00072
  28        3PX        -0.00090  -0.00174  -0.00004  -0.00000  -0.00015
  29        3PY        -0.00000  -0.00000  -0.00000   0.00038  -0.00000
  30        3PZ         0.00296   0.00143  -0.00016  -0.00000  -0.00023
  31 5   H  1S          0.00637   0.02102  -0.00127   0.00000   0.00056
  32        2S          0.02461   0.04348  -0.00330  -0.00000   0.00049
  33        3PX         0.00071   0.00049  -0.00006   0.00000  -0.00000
  34        3PY        -0.00000  -0.00000  -0.00000   0.00009  -0.00000
  35        3PZ         0.00004   0.00000   0.00004  -0.00000  -0.00002
                          21        22        23        24        25
  21 3   H  1S          0.09859
  22        2S          0.05074   0.03133
  23        3PX        -0.00308  -0.00120   0.00076
  24        3PY        -0.00000   0.00000  -0.00000   0.00038
  25        3PZ         0.00171   0.00067  -0.00035  -0.00000   0.00032
  26 4   H  1S         -0.01891  -0.02392  -0.00165  -0.00000  -0.00237
  27        2S         -0.02196  -0.01653   0.00090  -0.00000  -0.00255
  28        3PX         0.00213   0.00019  -0.00035  -0.00000   0.00004
  29        3PY        -0.00000  -0.00000  -0.00000   0.00038  -0.00000
  30        3PZ        -0.00202  -0.00209   0.00003  -0.00000  -0.00003
  31 5   H  1S          0.03602   0.01497   0.00897  -0.00000  -0.00499
  32        2S          0.01306  -0.00126   0.01462  -0.00000  -0.00814
  33        3PX        -0.00308  -0.00158  -0.00002   0.00000   0.00002
  34        3PY         0.00000   0.00000  -0.00000   0.00009  -0.00000
  35        3PZ         0.00172   0.00088   0.00002  -0.00000   0.00000
                          26        27        28        29        30
  26 4   H  1S          0.10503
  27        2S          0.05804   0.03812
  28        3PX         0.00490   0.00188   0.00037
  29        3PY         0.00000   0.00000   0.00000   0.00038
  30        3PZ         0.00353   0.00179   0.00014   0.00000   0.00026
  31 5   H  1S          0.00636   0.02101  -0.00114   0.00000   0.00078
  32        2S          0.02460   0.04347  -0.00216   0.00000   0.00255
  33        3PX         0.00034   0.00025  -0.00005   0.00000   0.00005
  34        3PY        -0.00000  -0.00000  -0.00000   0.00009  -0.00000
  35        3PZ        -0.00063  -0.00041   0.00001  -0.00000  -0.00003
[...]
  24        3PY         0.00277   0.00080   0.00001   0.00032  -0.00010
  25        3PZ         0.00020  -0.00010   0.00034   0.00164  -0.00001
  26 4   H  1S          0.05213   0.02701   0.01709   0.02919  -0.00023
  27        2S          0.00807   0.01887   0.00848   0.01507   0.00071
  28        3PX         0.00127   0.00127   0.00070   0.00102   0.00000
  29        3PY         0.00078   0.00073   0.00094   0.00008  -0.00003
  30        3PZ         0.00134   0.00107   0.00008   0.00043  -0.00006
  31 5   H  1S         -0.00261   0.00076   0.00023   0.00022   0.00003
  32        2S         -0.02225   0.00173   0.00056   0.00050   0.00067
  33        3PX         0.00003   0.00024   0.00011   0.00011  -0.00000
  34        3PY         0.00001   0.00011   0.00000   0.00003  -0.00000
  35        3PZ         0.00001   0.00011   0.00003   0.00000  -0.00000
                          11        12        13        14        15
  11        4YY         0.00050
  12        4ZZ         0.00000   0.00050
  13        4XY         0.00000   0.00000   0.00023
  14        4XZ         0.00000   0.00000   0.00000   0.00024
  15        4YZ         0.00000   0.00000   0.00000   0.00000   0.00033
  16 2   H  1S         -0.00125   0.00167   0.00019   0.00030   0.00134
  17        2S         -0.00097   0.00147   0.00004   0.00001   0.00013
  18        3PX        -0.00002   0.00001  -0.00000  -0.00004  -0.00000
  19        3PY         0.00000  -0.00003   0.00000  -0.00001  -0.00004
  20        3PZ        -0.00010   0.00000  -0.00000   0.00003   0.00005
  21 3   H  1S          0.00204  -0.00129   0.00088   0.00015   0.00043
  22        2S          0.00167  -0.00135   0.00006   0.00003   0.00004
  23        3PX         0.00000  -0.00002  -0.00004   0.00000  -0.00001
  24        3PY         0.00000  -0.00008   0.00006  -0.00000   0.00003
  25        3PZ        -0.00000  -0.00000  -0.00001  -0.00001  -0.00008
  26 4   H  1S         -0.00116  -0.00072   0.00075   0.00140   0.00117
  27        2S         -0.00076  -0.00017   0.00005   0.00012   0.00016
  28        3PX        -0.00004  -0.00005   0.00001   0.00001   0.00002
  29        3PY         0.00000  -0.00007  -0.00001   0.00002  -0.00001
  30        3PZ        -0.00008  -0.00000   0.00002   0.00002   0.00000
  31 5   H  1S          0.00000   0.00000   0.00002   0.00002   0.00001
  32        2S          0.00013   0.00013   0.00015   0.00014   0.00004
  33        3PX        -0.00000  -0.00000  -0.00000  -0.00000  -0.00000
  34        3PY         0.00000  -0.00000  -0.00000  -0.00000  -0.00000
  35        3PZ        -0.00000   0.00000  -0.00000  -0.00000  -0.00000
                          16        17        18        19        20
  16 2   H  1S          0.20793
  17        2S          0.06889   0.06204
  18        3PX         0.00000   0.00000   0.00060
  19        3PY         0.00000   0.00000   0.00000   0.00049
  20        3PZ         0.00000   0.00000   0.00000   0.00000   0.00086
  21 3   H  1S         -0.00091  -0.00719   0.00000   0.00011   0.00001
  22        2S         -0.00719  -0.01165   0.00001   0.00019  -0.00015
  23        3PX        -0.00000  -0.00001   0.00000   0.00000  -0.00000
  24        3PY         0.00003  -0.00012   0.00000   0.00000   0.00001
  25        3PZ         0.00009   0.00020  -0.00000   0.00001   0.00000
  26 4   H  1S         -0.00091  -0.00718   0.00005   0.00000   0.00007
  27        2S         -0.00718  -0.01164   0.00010   0.00001  -0.00005
  28        3PX         0.00001  -0.00007  -0.00000   0.00000   0.00001
  29        3PY        -0.00000  -0.00001   0.00000   0.00000  -0.00000
  30        3PZ         0.00011   0.00014   0.00001  -0.00000   0.00001
  31 5   H  1S         -0.00000   0.00060   0.00000   0.00000   0.00000
  32        2S         -0.00051   0.00461   0.00005   0.00001   0.00001
  33        3PX        -0.00000  -0.00001   0.00000   0.00000   0.00000
  34        3PY        -0.00000  -0.00000   0.00000   0.00000   0.00000
  35        3PZ         0.00000   0.00000   0.00000   0.00000   0.00000
                          21        22        23        24        25
  21 3   H  1S          0.20788
  22        2S          0.06888   0.06204
  23        3PX         0.00000   0.00000   0.00065
  24        3PY         0.00000   0.00000   0.00000   0.00089
  25        3PZ         0.00000   0.00000   0.00000   0.00000   0.00040
  26 4   H  1S         -0.00090  -0.00718   0.00005   0.00004   0.00003
  27        2S         -0.00718  -0.01164   0.00009  -0.00011   0.00008
  28        3PX         0.00002  -0.00005  -0.00000   0.00001   0.00000
  29        3PY         0.00011   0.00018   0.00001   0.00000  -0.00000
  30        3PZ        -0.00001  -0.00007   0.00000   0.00000   0.00000
  31 5   H  1S         -0.00000   0.00061   0.00000   0.00000   0.00000
  32        2S         -0.00052   0.00464   0.00005   0.00001   0.00001
  33        3PX        -0.00000  -0.00001   0.00000   0.00000   0.00000
  34        3PY         0.00000   0.00000   0.00000   0.00000   0.00000
  35        3PZ        -0.00000  -0.00000   0.00000   0.00000   0.00000
                          26        27        28        29        30
  26 4   H  1S          0.20792
  27        2S          0.06888   0.06201
  28        3PX         0.00000   0.00000   0.00077
  29        3PY         0.00000   0.00000   0.00000   0.00053
  30        3PZ         0.00000   0.00000   0.00000   0.00000   0.00065
  31 5   H  1S         -0.00000   0.00060   0.00000   0.00000   0.00000
  32        2S         -0.00051   0.00460   0.00005   0.00001   0.00001
  33        3PX         0.00000  -0.00000   0.00000   0.00000   0.00000
  34        3PY        -0.00000  -0.00000   0.00000  -0.00000   0.00000
  35        3PZ        -0.00000  -0.00000   0.00000   0.00000  -0.00000
                          31        32        33        34        35
  31 5   H  1S          0.17573
  32        2S          0.20324   0.54684
  33        3PX         0.00000   0.00000   0.00006
  34        3PY         0.00000   0.00000   0.00000   0.00002
  35        3PZ         0.00000   0.00000   0.00000   0.00000   0.00002
     Gross orbital populations:
                         Total     Alpha     Beta      Spin
   1 1   N  1S          1.99150   0.99575   0.99575  -0.00000
   2        2S          0.75295   0.38157   0.37138   0.01019
   3        2PX         0.92403   0.49924   0.42479   0.07445
   4        2PY         0.82059   0.42308   0.39750   0.02558
   5        2PZ         0.81900   0.42202   0.39698   0.02504
   6        3S          0.79375   0.39355   0.40019  -0.00664
   7        3PX         0.67137   0.33707   0.33430   0.00277
   8        3PY         0.47875   0.24025   0.23850   0.00176
   9        3PZ         0.47571   0.23870   0.23701   0.00169
  10        4XX        -0.01813  -0.00870  -0.00944   0.00074
  11        4YY        -0.00911  -0.00491  -0.00421  -0.00070
  12        4ZZ        -0.00899  -0.00484  -0.00414  -0.00070
  13        4XY         0.00239   0.00125   0.00114   0.00011
  14        4XZ         0.00243   0.00126   0.00118   0.00008
  15        4YZ         0.00362   0.00186   0.00176   0.00010
  16 2   H  1S          0.51149   0.25451   0.25698  -0.00246
  17        2S          0.18734   0.09315   0.09419  -0.00104
  18        3PX         0.00765   0.00393   0.00372   0.00021
  19        3PY         0.00654   0.00328   0.00326   0.00002
  20        3PZ         0.01220   0.00626   0.00594   0.00032
  21 3   H  1S          0.51138   0.25447   0.25691  -0.00244
  22        2S          0.18741   0.09318   0.09422  -0.00104
  23        3PX         0.00840   0.00428   0.00411   0.00017
  24        3PY         0.01264   0.00648   0.00615   0.00033
  25        3PZ         0.00534   0.00269   0.00265   0.00004
  26 4   H  1S          0.51147   0.25450   0.25697  -0.00247
  27        2S          0.18733   0.09314   0.09418  -0.00104
  28        3PX         0.01042   0.00547   0.00495   0.00052
  29        3PY         0.00716   0.00359   0.00357   0.00002
  30        3PZ         0.00880   0.00441   0.00440   0.00001
  31 5   H  1S          0.37956   0.35121   0.02835   0.32286
  32        2S          0.74412   0.64770   0.09642   0.55128
  33        3PX         0.00056   0.00036   0.00020   0.00016
  34        3PY         0.00018   0.00011   0.00006   0.00005
  35        3PZ         0.00018   0.00011   0.00006   0.00005
          Condensed to atoms (all electrons):
               1          2          3          4          5
     1  N    6.627273   0.363828   0.363815   0.363835  -0.018885
     2  H    0.363828   0.409700  -0.026558  -0.026534   0.004767
     3  H    0.363815  -0.026558   0.409634  -0.026533   0.004794
     4  H    0.363835  -0.026534  -0.026533   0.409646   0.004762
     5  H   -0.018885   0.004767   0.004794   0.004762   1.129165
          Atomic-Atomic Spin Densities.
               1          2          3          4          5
     1  N    0.262580  -0.004114  -0.004096  -0.004114  -0.115786
     2  H   -0.004114  -0.004765   0.000881   0.000879   0.004158
     3  H   -0.004096   0.000881  -0.004775   0.000880   0.004170
     4  H   -0.004114   0.000879   0.000880  -0.004764   0.004155
     5  H   -0.115786   0.004158   0.004170   0.004155   0.977697
 Mulliken charges and spin densities:
               1          2
     1  N   -0.699867   0.134470
     2  H    0.274797  -0.002960
     3  H    0.274848  -0.002940
     4  H    0.274825  -0.002964
     5  H   -0.124603   0.874394
 Sum of Mulliken charges =  -0.00000   1.00000
 Mulliken charges and spin densities with hydrogens summed into heavy atoms:
               1          2
     1  N   -0.000000   1.000000
 Electronic spatial extent (au):  <R**2>=             48.2302
 Charge=             -0.0000 electrons
 Dipole moment (field-independent basis, Debye):
    X=             -1.0383    Y=             -0.5624    Z=              0.5583  Tot=              1.3062
 Quadrupole moment (field-independent basis, Debye-Ang):
   XX=            -10.9450   YY=             -7.7378   ZZ=             -7.9511
   XY=             -2.0821   XZ=              2.2790   YZ=              1.1227
 Traceless Quadrupole moment (field-independent basis, Debye-Ang):
   XX=             -2.0670   YY=              1.1401   ZZ=              0.9269
   XY=             -2.0821   XZ=              2.2790   YZ=              1.1227
 Octapole moment (field-independent basis, Debye-Ang**2):
  XXX=            -12.9005  YYY=             -1.2801  ZZZ=              6.1497  XYY=             -2.8180
  XXY=             -1.2396  XXZ=              3.3918  XZZ=             -4.1288  YZZ=              0.2201
  YYZ=              1.4244  XYZ=              1.2454
 Hexadecapole moment (field-independent basis, Debye-Ang**3):
 XXXX=            -45.4082 YYYY=            -16.1777 ZZZZ=            -19.3583 XXXY=             -8.2881
 XXXZ=             11.0010 YYYX=             -6.9131 YYYZ=              3.8076 ZZZX=              9.0182
 ZZZY=              3.5122 XXYY=            -10.3200 XXZZ=            -11.3652 YYZZ=             -6.4125
 XXYZ=              2.3645 YYXZ=              2.9358 ZZXY=             -2.6948
 N-N= 1.440244441064D+01 E-N=-1.615397826603D+02  KE= 5.652286633799D+01
 Orbital energies and kinetic energies (alpha):
                                 1                 2
   1         O               -14.321306         21.954825
   2         O                -0.851136          1.873934
   3         O                -0.491561          1.334480
   4         O                -0.491443          1.334445
   5         O                -0.298324          0.956717
   6         O                -0.197387          1.256867
   7         V                 0.079444          1.089822
   8         V                 0.166746          0.995882
   9         V                 0.166774          0.995705
  10         V                 0.690754          1.706413
  11         V                 0.690977          1.706640
  12         V                 0.706894          2.493128
  13         V                 0.751715          2.283427
  14         V                 0.865593          2.048924
  15         V                 0.874104          2.920237
  16         V                 0.874180          2.920810
  17         V                 1.067077          2.155480
  18         V                 1.458448          2.473158
  19         V                 1.458552          2.473223
  20         V                 1.991380          2.837961
  21         V                 1.991546          2.837807
  22         V                 2.015084          2.856908
  23         V                 2.081143          3.065813
  24         V                 2.100483          3.076458
  25         V                 2.100656          3.076763
  26         V                 2.128637          3.153288
  27         V                 2.459002          3.287526
  28         V                 2.667269          3.623278
  29         V                 2.667694          3.623773
  30         V                 2.856498          4.024544
  31         V                 2.856886          4.025154
  32         V                 3.316429          6.157150
  33         V                 3.472298          5.480036
  34         V                 3.472544          5.480287
  35         V                 4.054292          8.472801
 Orbital energies and kinetic energies (beta):
                                 1                 2
   1         O               -14.317041         21.960054
   2         O                -0.842323          1.851436
   3         O                -0.488828          1.323893
   4         O                -0.488707          1.323845
   5         O                -0.245200          1.352370
   6         V                -0.033893          0.721565
   7         V                 0.083848          1.080767
   8         V                 0.167526          0.995642
   9         V                 0.167559          0.995455
  10         V                 0.690872          1.705850
  11         V                 0.691088          1.706074
  12         V                 0.723778          2.571600
  13         V                 0.790428          2.429307
  14         V                 0.875747          2.929042
  15         V                 0.875829          2.929243
  16         V                 0.966247          1.975391
  17         V                 1.074606          2.172787
  18         V                 1.465298          2.471712
  19         V                 1.465399          2.471778
  20         V                 2.014223          2.856922
  21         V                 2.044287          3.060134
  22         V                 2.044535          3.060261
  23         V                 2.114485          3.232720
  24         V                 2.189031          2.853337
  25         V                 2.189110          2.853340
  26         V                 2.195026          2.994035
  27         V                 2.492851          3.281407
  28         V                 2.671875          3.624738
  29         V                 2.672299          3.625230
  30         V                 2.856816          4.026378
  31         V                 2.857204          4.026985
  32         V                 3.319291          6.131760
  33         V                 3.474242          5.482233
  34         V                 3.474489          5.482484
  35         V                 4.060450          8.493885
 Total kinetic energy from orbitals= 5.652286633799D+01
                          Isotropic Fermi Contact Couplings
        Atom                 a.u.       MegaHertz       Gauss      10(-4) cm-1
     1  N(14)              0.07422      23.97953       8.55649       7.99871
     2  H(1)              -0.00200      -8.92006      -3.18290      -2.97541
     3  H(1)              -0.00197      -8.80625      -3.14229      -2.93745
     4  H(1)              -0.00200      -8.93322      -3.18760      -2.97980
     5  H(1)               0.26313    1176.14027     419.67608     392.31817
 --------------------------------------------------------
       Center         ----  Spin Dipole Couplings  ----
                      3XX-RR        3YY-RR        3ZZ-RR
 --------------------------------------------------------
     1   Atom        0.197601     -0.097198     -0.100402
     2   Atom       -0.011608     -0.018817      0.030425
     3   Atom       -0.011172      0.033414     -0.022243
     4   Atom        0.026941     -0.016643     -0.010298
     5   Atom       -0.004681      0.002327      0.002354
 --------------------------------------------------------
                        XY            XZ            YZ
 --------------------------------------------------------
     1   Atom        0.228292     -0.225379     -0.122737
     2   Atom        0.008228     -0.009327      0.009732
     3   Atom        0.003242     -0.008914      0.000915
     4   Atom       -0.006746      0.013496     -0.013200
     5   Atom       -0.005343      0.005316      0.002871
 --------------------------------------------------------


 ---------------------------------------------------------------------------------
              Anisotropic Spin Dipole Couplings in Principal Axis System
 ---------------------------------------------------------------------------------

       Atom             a.u.   MegaHertz   Gauss  10(-4) cm-1        Axes

              Baa    -0.2216    -8.546    -3.049    -2.851  0.5189 -0.1167  0.8469
     1 N(14)  Bbb    -0.2215    -8.544    -3.049    -2.850 -0.3165  0.8940  0.3171
              Bcc     0.4431    17.090     6.098     5.701  0.7941  0.4325 -0.4270
 
              Baa    -0.0273   -14.542    -5.189    -4.851 -0.5552  0.8008 -0.2249
     2 H(1)   Bbb    -0.0064    -3.394    -1.211    -1.132  0.8136  0.5790  0.0531
              Bcc     0.0336    17.936     6.400     5.983 -0.1727  0.1535  0.9729
 
              Baa    -0.0273   -14.562    -5.196    -4.857  0.4895 -0.0393  0.8711
     3 H(1)   Bbb    -0.0064    -3.392    -1.210    -1.131  0.8691 -0.0596 -0.4911
              Bcc     0.0337    17.954     6.406     5.989  0.0712  0.9975  0.0050
 
              Baa    -0.0272   -14.538    -5.188    -4.849 -0.0660  0.7611  0.6452
     4 H(1)   Bbb    -0.0064    -3.395    -1.211    -1.132 -0.4003 -0.6125  0.6816
              Bcc     0.0336    17.933     6.399     5.982  0.9140 -0.2133  0.3451
 
              Baa    -0.0104    -5.562    -1.984    -1.855  0.7955  0.4296 -0.4275
     5 H(1)   Bbb     0.0052     2.780     0.992     0.927  0.5017 -0.0710  0.8621
              Bcc     0.0052     2.781     0.992     0.928 -0.3400  0.9002  0.2720
 

 ---------------------------------------------------------------------------------

 No NMR shielding tensors so no spin-rotation constants.
 Leave Link  601 at Sat Sep 14 01:38:18 2024, MaxMem=   268435456 cpu:         2.3
 (Enter /g100_work/pMI24_ChiCa/g09d1/g09d01/d01/build-node-6-2-59348/src/main/l9999.exe)
 B after Tr=    -0.035426    0.232297    0.015508
         Rot=    0.998640    0.040935    0.001256    0.032262 Ang=   5.98 deg.
 Determination of dummy atom variables in z-matrix conversion failed.
 Determination of dummy atom variables in z-matrix conversion failed.
 NNew=      3.41354411D+00 NOld=      3.41354411D+00 Diff= 8.88D-16


 CHARLIE BROWN -- WHICH DO YOU THINK LASTS LONGER IN LIFE, THE GOOD THINGS 
                  OR THE BAD THINGS?
 LINUS --         GOOD THINGS LAST EIGHT SECONDS ..
                  BAD THINGS LAST THREE WEEKS
 CHARLIE BROWN -- WHAT ABOUT IN BETWEEN?
 SNOOPY --        IN BETWEEN YOU SHOULD TAKE A NAP ...
 Error termination request processed by link 9999.
 Error termination via Lnk1e in /g100_work/pMI24_ChiCa/g09d1/g09d01/d01/build-node-6-2-59348/src/main/l9999.exe at Sat Sep 14 01:38:18 2024.
 Job cpu time:       0 days  0 hours  5 minutes  6.9 seconds.
 File lengths (MBytes):  RWF=      5 Int=      0 D2E=      0 Chk=      1 Scr=      1
