 Entering Gaussian System, Link 0=/g100_work/pMI24_ChiCa/g09d1/g09d01/d01/build-node-6-2-59348/src/main/g09
 Input=geom.com
 Output=geom.log
 Initial command:
 /g100_work/pMI24_ChiCa/g09d1/g09d01/d01/build-node-6-2-59348/src/main/l1.exe "/g100_scratch/userexternal/ecabiati/g16_14401512/Gau-28041.inp" -scrdir="/g100_scratch/userexternal/ecabiati/g16_14401512/"
 Entering Link 1 = /g100_work/pMI24_ChiCa/g09d1/g09d01/d01/build-node-6-2-59348/src/main/l1.exe PID=     28042.
  
 Copyright (c) 1988,1990,1992,1993,1995,1998,2003,2009,2013,
            Gaussian, Inc.  All Rights Reserved.
  
 This is part of the Gaussian(R) 09 program.  It is based on
 the Gaussian(R) 03 system (copyright 2003, Gaussian, Inc.),
 the Gaussian(R) 98 system (copyright 1998, Gaussian, Inc.),
 the Gaussian(R) 94 system (copyright 1995, Gaussian, Inc.),
 the Gaussian 92(TM) system (copyright 1992, Gaussian, Inc.),
 the Gaussian 90(TM) system (copyright 1990, Gaussian, Inc.),
 the Gaussian 88(TM) system (copyright 1988, Gaussian, Inc.),
 the Gaussian 86(TM) system (copyright 1986, Carnegie Mellon
 University), and the Gaussian 82(TM) system (copyright 1983,
 Carnegie Mellon University). Gaussian is a federally registered
 trademark of Gaussian, Inc.
  
 This software contains proprietary and confidential information,
 including trade secrets, belonging to Gaussian, Inc.
  
 This software is provided under written license and may be
 used, copied, transmitted, or stored only in accord with that
 written license.
  
 The following legend is applicable only to US Government
 contracts under FAR:
  
                    RESTRICTED RIGHTS LEGEND
  
 Use, reproduction and disclosure by the US Government is
 subject to restrictions as set forth in subparagraphs (a)
 and (c) of the Commercial Computer Software - Restricted
 Rights clause in FAR 52.227-19.
  
 Gaussian, Inc.
 340 Quinnipiac St., Bldg. 40, Wallingford CT 06492
  
  
 ---------------------------------------------------------------
 Warning -- This program may not be used in any manner that
 competes with the business of Gaussian, Inc. or will provide
 assistance to any competitor of Gaussian, Inc.  The licensee
 of this program is prohibited from giving any competitor of
 Gaussian, Inc. access to this program.  By using this program,
 the user acknowledges that Gaussian, Inc. is engaged in the
 business of creating and licensing software in the field of
 computational chemistry and represents and warrants to the
 licensee that it is not a competitor of Gaussian, Inc. and that
 it will not use this program in any manner prohibited above.
 ---------------------------------------------------------------
  

 Cite this work as:
 Gaussian 09, Revision D.01,
 M. J. Frisch, G. W. Trucks, H. B. Schlegel, G. E. Scuseria, 
 M. A. Robb, J. R. Cheeseman, G. Scalmani, V. Barone, B. Mennucci, 
 G. A. Petersson, H. Nakatsuji, M. Caricato, X. Li, H. P. Hratchian, 
 A. F. Izmaylov, J. Bloino, G. Zheng, J. L. Sonnenberg, M. Hada, 
 M. Ehara, K. Toyota, R. Fukuda, J. Hasegawa, M. Ishida, T. Nakajima, 
 Y. Honda, O. Kitao, H. Nakai, T. Vreven, J. A. Montgomery, Jr., 
 J. E. Peralta, F. Ogliaro, M. Bearpark, J. J. Heyd, E. Brothers, 
 K. N. Kudin, V. N. Staroverov, T. Keith, R. Kobayashi, J. Normand, 
 K. Raghavachari, A. Rendell, J. C. Burant, S. S. Iyengar, J. Tomasi, 
 M. Cossi, N. Rega, J. M. Millam, M. Klene, J. E. Knox, J. B. Cross, 
 V. Bakken, C. Adamo, J. Jaramillo, R. Gomperts, R. E. Stratmann, 
 O. Yazyev, A. J. Austin, R. Cammi, C. Pomelli, J. W. Ochterski, 
 R. L. Martin, K. Morokuma, V. G. Zakrzewski, G. A. Voth, 
 P. Salvador, J. J. Dannenberg, S. Dapprich, A. D. Daniels, 
 O. Farkas, J. B. Foresman, J. V. Ortiz, J. Cioslowski, 
 and D. J. Fox, Gaussian, Inc., Wallingford CT, 2013.
 
 ******************************************
 Gaussian 09:  EM64L-G09RevD.01 24-Apr-2013
                14-Sep-2024 
 ******************************************
 %nproc=24
 Will use up to   24 processors via shared memory.
 %mem=2Gb
 %chk=ts.chk
 ----------------------------------------------------------------------
 #p wb97xd/6-31g(d,p) opt=(Z-matrix,ts,calcfc) nosym freq temperature=3
 00 pop=full gfinput
 ----------------------------------------------------------------------
 1/5=1,10=4,14=-1,18=40,26=3,38=1,112=300000/1,3;
 2/12=2,15=1,17=6,18=5,29=3,40=1/2;
 3/5=1,6=6,7=101,11=2,16=1,24=10,25=1,30=1,71=2,74=-58,140=1/1,2,3;
 4//1;
 5/5=2,38=5/2;
 8/6=4,10=90,11=11/1;
 11/6=1,8=1,9=11,15=111,16=1,31=1/1,2,10;
 10/6=1,13=1,31=1/2;
 6/7=3,28=1/1;
 7/10=1,18=20,25=1,30=1/1,2,3,16;
 1/5=1,10=4,14=-1,18=40,26=3/3(2);
 2/15=1,29=3/2;
 99//99;
 2/15=1,29=3/2;
 3/5=1,6=6,7=101,11=2,16=1,25=1,30=1,71=1,74=-58/1,2,3;
 4/5=5,16=3,69=1/1;
 5/5=2,38=5/2;
 7/30=1/1,2,3,16;
 1/5=1,14=-1,18=40,26=3/3(-5);
 2/15=1,29=3/2;
 6/7=3,19=2,28=1/1;
 99/9=1/99;
 Leave Link    1 at Sat Sep 14 12:15:54 2024, MaxMem=   268435456 cpu:         0.2
 (Enter /g100_work/pMI24_ChiCa/g09d1/g09d01/d01/build-node-6-2-59348/src/main/l101.exe)
 ------------------
 nh3+h to nh2+h2 ts
 ------------------
 Symbolic Z-matrix:
 Charge =  0 Multiplicity = 2
 n
 h                    1    hn2
 h                    1    hn3      2    hnh3
 h                    1    hn4      3    hnh4     2    dih4     0
 xx                   3    xxh5     1    xxhn5    4    dih5     0
 h                    3    hh6      5    hhxx6    1    dih6     0
       Variables:
  hn2                   1.02334                  
  hn3                   1.1658                   
  hnh3                102.22437                  
  hn4                   1.02334                  
  hnh4                102.23294                  
  dih4                252.06543                  
  xxh5                  1.0215  -1        0.     
  xxhn5                76.9226  -1        0.     
  dih5                 77.3649  -1        0.     
  hh6                   0.9653                   
  hhxx6               118.08078                  
  dih6                159.4517                   
 
 NAtoms=      5 NQM=        5 NQMF=       0 NMMI=      0 NMMIF=      0
                NMic=       0 NMicF=      0.
                    Isotopes and Nuclear Properties:
 (Nuclear quadrupole moments (NQMom) in fm**2, nuclear magnetic moments (NMagM)
  in nuclear magnetons)

  Atom         1           2           3           4           5
 IAtWgt=          14           1           1           1           1
 AtmWgt=  14.0030740   1.0078250   1.0078250   1.0078250   1.0078250
 NucSpn=           2           1           1           1           1
 AtZEff=   0.0000000   0.0000000   0.0000000   0.0000000   0.0000000
 NQMom=    2.0440000   0.0000000   0.0000000   0.0000000   0.0000000
 NMagM=    0.4037610   2.7928460   2.7928460   2.7928460   2.7928460
 AtZNuc=   7.0000000   1.0000000   1.0000000   1.0000000   1.0000000
 Leave Link  101 at Sat Sep 14 12:15:54 2024, MaxMem=   268435456 cpu:         0.2
 (Enter /g100_work/pMI24_ChiCa/g09d1/g09d01/d01/build-node-6-2-59348/src/main/l103.exe)

 GradGradGradGradGradGradGradGradGradGradGradGradGradGradGradGradGradGrad
 Berny optimization.
 Initialization pass.
                       ----------------------------
                       !    Initial Parameters    !
                       ! (Angstroms and Degrees)  !
 ----------------------                            ----------------------
 !      Name          Value   Derivative information (Atomic Units)     !
 ------------------------------------------------------------------------
 !       hn2         1.0233   calculate D2E/DX2 analytically            !
 !       hn3         1.1658   calculate D2E/DX2 analytically            !
 !      hnh3       102.2244   calculate D2E/DX2 analytically            !
 !       hn4         1.0233   calculate D2E/DX2 analytically            !
 !      hnh4       102.2329   calculate D2E/DX2 analytically            !
 !      dih4       252.0654   calculate D2E/DX2 analytically            !
 !      xxh5         1.0215   frozen, calculate D2E/DX2 analytically    !
 !      xxhn5       76.9226   frozen, calculate D2E/DX2 analytically    !
 !      dih5        77.3649   frozen, calculate D2E/DX2 analytically    !
 !       hh6         0.9653   calculate D2E/DX2 analytically            !
 !      hhxx6      118.0808   calculate D2E/DX2 analytically            !
 !      dih6       159.4517   calculate D2E/DX2 analytically            !
 ------------------------------------------------------------------------
 Trust Radius=3.00D-01 FncErr=1.00D-07 GrdErr=1.00D-06
 Number of steps in this run=     22 maximum allowed number of steps=    100.
 Search for a saddle point of order  1.
 GradGradGradGradGradGradGradGradGradGradGradGradGradGradGradGradGradGrad

 Leave Link  103 at Sat Sep 14 12:15:54 2024, MaxMem=   268435456 cpu:         0.1
 (Enter /g100_work/pMI24_ChiCa/g09d1/g09d01/d01/build-node-6-2-59348/src/main/l202.exe)
 ---------------------------------------------------------------------------------------------------
                            Z-MATRIX (ANGSTROMS AND DEGREES)
   CD    Cent   Atom    N1       Length/X        N2       Alpha/Y        N3        Beta/Z          J
 ---------------------------------------------------------------------------------------------------
      1      1  N 
      2      2  H        1   1.023340(     1)
      3      3  H        1   1.165800(     2)      2  102.224(     6)
      4      4  H        1   1.023340(     3)      3  102.233(     7)      2  252.065(    10)      0
      5         X        3   1.021500(     4)      1   76.923(     8)      4   77.365(    11)      0
      6      5  H        3   0.965300(     5)      5  118.081(     9)      1  159.452(    12)      0
 ---------------------------------------------------------------------------------------------------
                         Z-Matrix orientation:                         
 ---------------------------------------------------------------------
 Center     Atomic      Atomic             Coordinates (Angstroms)
 Number     Number       Type             X           Y           Z
 ---------------------------------------------------------------------
      1          7           0        0.000000    0.000000    0.000000
      2          1           0        0.000000    0.000000    1.023340
      3          1           0        1.139367    0.000000   -0.246847
      4          1           0       -0.277124   -0.951508   -0.255068
      5         -1           0        0.703693    0.091900   -1.166197
      6          1           0        2.048460   -0.321868   -0.204966
 ---------------------------------------------------------------------
                    Distance matrix (angstroms):
                    1          2          3          4          5
     1  N    0.000000
     2  H    1.023340   0.000000
     3  H    1.165800   1.706321   0.000000
     4  H    1.023340   1.617557   1.706423   0.000000
     5  X    1.365154   2.301674   1.021500   1.697309   0.000000
     6  H    2.083698   2.410088   0.965300   2.409833   1.703986
                    6
     6  H    0.000000
 Symmetry turned off by external request.
 Stoichiometry    H4N(2)
 Framework group  C1[X(H4N)]
 Deg. of freedom     9
 Full point group                 C1      NOp   1
 Rotational constants (GHZ):    250.9455422     84.7421188     76.7260779
 Leave Link  202 at Sat Sep 14 12:15:54 2024, MaxMem=   268435456 cpu:         0.2
 (Enter /g100_work/pMI24_ChiCa/g09d1/g09d01/d01/build-node-6-2-59348/src/main/l301.exe)
 Standard basis: 6-31G(d,p) (6D, 7F)
 Ernie: Thresh=  0.10000D-02 Tol=  0.10000D-05 Strict=F.
 AO basis set in the form of general basis input (Overlap normalization):
      1 0
 S   6 1.00       0.000000000000
      0.4173511460D+04  0.1834772160D-02
      0.6274579110D+03  0.1399462700D-01
      0.1429020930D+03  0.6858655181D-01
      0.4023432930D+02  0.2322408730D+00
      0.1282021290D+02  0.4690699481D+00
      0.4390437010D+01  0.3604551991D+00
 SP   3 1.00       0.000000000000
      0.1162636186D+02 -0.1149611817D+00  0.6757974388D-01
      0.2716279807D+01 -0.1691174786D+00  0.3239072959D+00
      0.7722183966D+00  0.1145851947D+01  0.7408951398D+00
 SP   1 1.00       0.000000000000
      0.2120314975D+00  0.1000000000D+01  0.1000000000D+01
 D   1 1.00       0.000000000000
      0.8000000000D+00  0.1000000000D+01
 ****
      2 0
 S   3 1.00       0.000000000000
      0.1873113696D+02  0.3349460434D-01
      0.2825394365D+01  0.2347269535D+00
      0.6401216923D+00  0.8137573261D+00
 S   1 1.00       0.000000000000
      0.1612777588D+00  0.1000000000D+01
 P   1 1.00       0.000000000000
      0.1100000000D+01  0.1000000000D+01
 ****
      3 0
 S   3 1.00       0.000000000000
      0.1873113696D+02  0.3349460434D-01
      0.2825394365D+01  0.2347269535D+00
      0.6401216923D+00  0.8137573261D+00
 S   1 1.00       0.000000000000
      0.1612777588D+00  0.1000000000D+01
 P   1 1.00       0.000000000000
      0.1100000000D+01  0.1000000000D+01
 ****
      4 0
 S   3 1.00       0.000000000000
      0.1873113696D+02  0.3349460434D-01
      0.2825394365D+01  0.2347269535D+00
      0.6401216923D+00  0.8137573261D+00
 S   1 1.00       0.000000000000
      0.1612777588D+00  0.1000000000D+01
 P   1 1.00       0.000000000000
      0.1100000000D+01  0.1000000000D+01
 ****
      5 0
 S   3 1.00       0.000000000000
      0.1873113696D+02  0.3349460434D-01
      0.2825394365D+01  0.2347269535D+00
      0.6401216923D+00  0.8137573261D+00
 S   1 1.00       0.000000000000
      0.1612777588D+00  0.1000000000D+01
 P   1 1.00       0.000000000000
      0.1100000000D+01  0.1000000000D+01
 ****

    35 basis functions,    56 primitive gaussians,    35 cartesian basis functions
     6 alpha electrons        5 beta electrons
       nuclear repulsion energy        14.1293989333 Hartrees.
 IExCor= 4639 DFT=T Ex+Corr=wB97XD ExCW=0 ScaHFX=  1.000000
 ScaDFX=  1.000000  1.000000  1.000000  1.000000 ScalE2=  1.000000  1.000000
 IRadAn=      0 IRanWt=     -1 IRanGd=            0 ICorTp=0 IEmpDi=121
  HFx wShort=  0.000000 wLong=  0.200000 cFull=  0.222036 cShort=  0.000000 cLong=  0.777964
  DFx wShort=  0.000000 wLong=  0.200000 cFull=  0.000000 cShort=  0.000000 cLong=  1.000000
 NAtoms=    5 NActive=    5 NUniq=    5 SFac= 1.00D+00 NAtFMM=   60 NAOKFM=F Big=F
 Integral buffers will be    131072 words long.
 Raffenetti 2 integral format.
 Two-electron integral symmetry is turned off.
 R6Disp:  Grimme-D2 Dispersion energy=       -0.0005346158 Hartrees.
 Nuclear repulsion after empirical dispersion term =       14.1288643175 Hartrees.
 Leave Link  301 at Sat Sep 14 12:15:54 2024, MaxMem=   268435456 cpu:         0.1
 (Enter /g100_work/pMI24_ChiCa/g09d1/g09d01/d01/build-node-6-2-59348/src/main/l302.exe)
 NPDir=0 NMtPBC=     1 NCelOv=     1 NCel=       1 NClECP=     1 NCelD=      1
         NCelK=      1 NCelE2=     1 NClLst=     1 CellRange=     0.0.
 One-electron integrals computed using PRISM.
 NBasis=    35 RedAO= T EigKep=  1.65D-02  NBF=    35
 NBsUse=    35 1.00D-06 EigRej= -1.00D+00 NBFU=    35
 Precomputing XC quadrature grid using
 IXCGrd= 4 IRadAn=           0 IRanWt=          -1 IRanGd=           0 AccXCQ= 0.00D+00.
 Generated NRdTot=       0 NPtTot=           0 NUsed=           0 NTot=          32
 NSgBfM=    35    35    35    35    35 MxSgAt=     5 MxSgA2=     5.
 Leave Link  302 at Sat Sep 14 12:15:55 2024, MaxMem=   268435456 cpu:         1.2
 (Enter /g100_work/pMI24_ChiCa/g09d1/g09d01/d01/build-node-6-2-59348/src/main/l303.exe)
 DipDrv:  MaxL=1.
 Leave Link  303 at Sat Sep 14 12:15:55 2024, MaxMem=   268435456 cpu:         0.2
 (Enter /g100_work/pMI24_ChiCa/g09d1/g09d01/d01/build-node-6-2-59348/src/main/l401.exe)
 ExpMin= 1.61D-01 ExpMax= 4.17D+03 ExpMxC= 6.27D+02 IAcc=1 IRadAn=         1 AccDes= 0.00D+00
 Harris functional with IExCor= 4639 and IRadAn=       1 diagonalized for initial guess.
 HarFok:  IExCor= 4639 AccDes= 0.00D+00 IRadAn=         1 IDoV= 1 UseB2=F ITyADJ=14
 ICtDFT=  3500011 ScaDFX=  1.000000  1.000000  1.000000  1.000000
 FoFCou: FMM=F IPFlag=           0 FMFlag=      100000 FMFlg1=           0
         NFxFlg=           0 DoJE=T BraDBF=F KetDBF=T FulRan=T
         wScrn=  0.000000 ICntrl=     500 IOpCl=  0 I1Cent=   200000004 NGrid=           0
         NMat0=    1 NMatS0=      1 NMatT0=    0 NMatD0=    1 NMtDS0=    0 NMtDT0=    0
 Symmetry not used in FoFCou.
 Harris En= -54.3551295583292    
 JPrj=0 DoOrth=F DoCkMO=F.
 Initial guess <Sx>= 0.0000 <Sy>= 0.0000 <Sz>= 0.5000 <S**2>= 0.7500 S= 0.5000
 Leave Link  401 at Sat Sep 14 12:15:55 2024, MaxMem=   268435456 cpu:         1.2
 (Enter /g100_work/pMI24_ChiCa/g09d1/g09d01/d01/build-node-6-2-59348/src/main/l502.exe)
 UHF open shell SCF:
 Using DIIS extrapolation, IDIIS=  1040.
 Two-electron integral symmetry not used.
 Keep R1 and R2 ints in memory in canonical form, NReq=1678651.
 IVT=       23285 IEndB=       23285 NGot=   268435456 MDV=   267617112
 LenX=   267617112 LenY=   267615446
 Requested convergence on RMS density matrix=1.00D-08 within 128 cycles.
 Requested convergence on MAX density matrix=1.00D-06.
 Requested convergence on             energy=1.00D-06.
 No special actions if energy rises.
 FoFCou: FMM=F IPFlag=           0 FMFlag=           0 FMFlg1=           0
         NFxFlg=           0 DoJE=F BraDBF=F KetDBF=F FulRan=T
         wScrn=  0.000000 ICntrl=     600 IOpCl=  0 I1Cent=           0 NGrid=           0
         NMat0=    1 NMatS0=    630 NMatT0=    0 NMatD0=    1 NMtDS0=    0 NMtDT0=    0
 Symmetry not used in FoFCou.
 Integral accuracy reduced to 1.0D-05 until final iterations.

 Cycle   1  Pass 0  IDiag  1:
 E= -57.0111403433358    
 DIIS: error= 6.49D-02 at cycle   1 NSaved=   1.
 NSaved= 1 IEnMin= 1 EnMin= -57.0111403433358     IErMin= 1 ErrMin= 6.49D-02
 ErrMax= 6.49D-02  0.00D+00 EMaxC= 1.00D-01 BMatC= 1.50D-01 BMatP= 1.50D-01
 IDIUse=3 WtCom= 3.51D-01 WtEn= 6.49D-01
 Coeff-Com:  0.100D+01
 Coeff-En:   0.100D+01
 Coeff:      0.100D+01
 Gap=     0.496 Goal=   None    Shift=    0.000
 Gap=     0.326 Goal=   None    Shift=    0.000
 GapD=    0.326 DampG=1.000 DampE=0.500 DampFc=0.5000 IDamp=-1.
 Damping current iteration by 5.00D-01
 RMSDP=3.23D-03 MaxDP=3.46D-02              OVMax= 3.50D-02

 Cycle   2  Pass 0  IDiag  1:
 E= -57.0163469849871     Delta-E=       -0.005206641651 Rises=F Damp=T
 DIIS: error= 3.17D-02 at cycle   2 NSaved=   2.
 NSaved= 2 IEnMin= 2 EnMin= -57.0163469849871     IErMin= 2 ErrMin= 3.17D-02
 ErrMax= 3.17D-02  0.00D+00 EMaxC= 1.00D-01 BMatC= 3.68D-02 BMatP= 1.50D-01
 IDIUse=3 WtCom= 6.83D-01 WtEn= 3.17D-01
 Coeff-Com: -0.952D+00 0.195D+01
 Coeff-En:   0.000D+00 0.100D+01
 Coeff:     -0.650D+00 0.165D+01
 Gap=     0.498 Goal=   None    Shift=    0.000
 Gap=     0.332 Goal=   None    Shift=    0.000
 RMSDP=1.97D-03 MaxDP=2.17D-02 DE=-5.21D-03 OVMax= 8.96D-03

 Cycle   3  Pass 0  IDiag  1:
 E= -57.0222359581362     Delta-E=       -0.005888973149 Rises=F Damp=F
 DIIS: error= 1.39D-03 at cycle   3 NSaved=   3.
 NSaved= 3 IEnMin= 3 EnMin= -57.0222359581362     IErMin= 3 ErrMin= 1.39D-03
 ErrMax= 1.39D-03  0.00D+00 EMaxC= 1.00D-01 BMatC= 3.03D-04 BMatP= 3.68D-02
 IDIUse=3 WtCom= 9.86D-01 WtEn= 1.39D-02
 Coeff-Com: -0.110D+00 0.205D+00 0.905D+00
 Coeff-En:   0.000D+00 0.000D+00 0.100D+01
 Coeff:     -0.108D+00 0.202D+00 0.906D+00
 Gap=     0.500 Goal=   None    Shift=    0.000
 Gap=     0.337 Goal=   None    Shift=    0.000
 RMSDP=4.50D-04 MaxDP=5.56D-03 DE=-5.89D-03 OVMax= 6.75D-03

 Cycle   4  Pass 0  IDiag  1:
 E= -57.0223428390638     Delta-E=       -0.000106880928 Rises=F Damp=F
 DIIS: error= 9.65D-04 at cycle   4 NSaved=   4.
 NSaved= 4 IEnMin= 4 EnMin= -57.0223428390638     IErMin= 4 ErrMin= 9.65D-04
 ErrMax= 9.65D-04  0.00D+00 EMaxC= 1.00D-01 BMatC= 1.22D-04 BMatP= 3.03D-04
 IDIUse=3 WtCom= 9.90D-01 WtEn= 9.65D-03
 Coeff-Com:  0.177D+00-0.363D+00 0.340D+00 0.846D+00
 Coeff-En:   0.000D+00 0.000D+00 0.000D+00 0.100D+01
 Coeff:      0.175D+00-0.360D+00 0.337D+00 0.848D+00
 Gap=     0.501 Goal=   None    Shift=    0.000
 Gap=     0.336 Goal=   None    Shift=    0.000
 RMSDP=1.99D-04 MaxDP=2.06D-03 DE=-1.07D-04 OVMax= 3.16D-03

 Cycle   5  Pass 0  IDiag  1:
 E= -57.0223814921122     Delta-E=       -0.000038653048 Rises=F Damp=F
 DIIS: error= 1.78D-04 at cycle   5 NSaved=   5.
 NSaved= 5 IEnMin= 5 EnMin= -57.0223814921122     IErMin= 5 ErrMin= 1.78D-04
 ErrMax= 1.78D-04  0.00D+00 EMaxC= 1.00D-01 BMatC= 4.88D-06 BMatP= 1.22D-04
 IDIUse=3 WtCom= 9.98D-01 WtEn= 1.78D-03
 Coeff-Com:  0.307D-01-0.618D-01-0.754D-01 0.821D-01 0.102D+01
 Coeff-En:   0.000D+00 0.000D+00 0.000D+00 0.000D+00 0.100D+01
 Coeff:      0.307D-01-0.616D-01-0.753D-01 0.819D-01 0.102D+01
 Gap=     0.501 Goal=   None    Shift=    0.000
 Gap=     0.337 Goal=   None    Shift=    0.000
 RMSDP=7.72D-05 MaxDP=7.01D-04 DE=-3.87D-05 OVMax= 1.44D-03

 Cycle   6  Pass 0  IDiag  1:
 E= -57.0223846082589     Delta-E=       -0.000003116147 Rises=F Damp=F
 DIIS: error= 7.27D-05 at cycle   6 NSaved=   6.
 NSaved= 6 IEnMin= 6 EnMin= -57.0223846082589     IErMin= 6 ErrMin= 7.27D-05
 ErrMax= 7.27D-05  0.00D+00 EMaxC= 1.00D-01 BMatC= 2.72D-07 BMatP= 4.88D-06
 IDIUse=1 WtCom= 1.00D+00 WtEn= 0.00D+00
 Coeff-Com: -0.189D-01 0.383D-01 0.114D-01-0.740D-01-0.342D+00 0.139D+01
 Coeff:     -0.189D-01 0.383D-01 0.114D-01-0.740D-01-0.342D+00 0.139D+01
 Gap=     0.501 Goal=   None    Shift=    0.000
 Gap=     0.337 Goal=   None    Shift=    0.000
 RMSDP=2.51D-05 MaxDP=2.08D-04 DE=-3.12D-06 OVMax= 7.57D-04

 Cycle   7  Pass 0  IDiag  1:
 E= -57.0223849782043     Delta-E=       -0.000000369945 Rises=F Damp=F
 DIIS: error= 3.64D-05 at cycle   7 NSaved=   7.
 NSaved= 7 IEnMin= 7 EnMin= -57.0223849782043     IErMin= 7 ErrMin= 3.64D-05
 ErrMax= 3.64D-05  0.00D+00 EMaxC= 1.00D-01 BMatC= 3.60D-08 BMatP= 2.72D-07
 IDIUse=1 WtCom= 1.00D+00 WtEn= 0.00D+00
 Coeff-Com:  0.554D-02-0.113D-01 0.286D-02 0.161D-01 0.784D-01-0.579D+00
 Coeff-Com:  0.149D+01
 Coeff:      0.554D-02-0.113D-01 0.286D-02 0.161D-01 0.784D-01-0.579D+00
 Coeff:      0.149D+01
 Gap=     0.501 Goal=   None    Shift=    0.000
 Gap=     0.337 Goal=   None    Shift=    0.000
 RMSDP=1.20D-05 MaxDP=1.12D-04 DE=-3.70D-07 OVMax= 4.33D-04

 Cycle   8  Pass 0  IDiag  1:
 E= -57.0223850502366     Delta-E=       -0.000000072032 Rises=F Damp=F
 DIIS: error= 1.52D-05 at cycle   8 NSaved=   8.
 NSaved= 8 IEnMin= 8 EnMin= -57.0223850502366     IErMin= 8 ErrMin= 1.52D-05
 ErrMax= 1.52D-05  0.00D+00 EMaxC= 1.00D-01 BMatC= 6.26D-09 BMatP= 3.60D-08
 IDIUse=1 WtCom= 1.00D+00 WtEn= 0.00D+00
 Coeff-Com:  0.176D-02-0.356D-02-0.203D-02 0.585D-02 0.412D-01-0.107D+00
 Coeff-Com: -0.285D+00 0.135D+01
 Coeff:      0.176D-02-0.356D-02-0.203D-02 0.585D-02 0.412D-01-0.107D+00
 Coeff:     -0.285D+00 0.135D+01
 Gap=     0.501 Goal=   None    Shift=    0.000
 Gap=     0.337 Goal=   None    Shift=    0.000
 RMSDP=5.53D-06 MaxDP=5.03D-05 DE=-7.20D-08 OVMax= 2.14D-04

 Initial convergence to 1.0D-05 achieved.  Increase integral accuracy.
 Cycle   9  Pass 1  IDiag  1:
 E= -57.0223762107100     Delta-E=        0.000008839527 Rises=F Damp=F
 DIIS: error= 9.36D-05 at cycle   1 NSaved=   1.
 NSaved= 1 IEnMin= 1 EnMin= -57.0223762107100     IErMin= 1 ErrMin= 9.36D-05
 ErrMax= 9.36D-05  0.00D+00 EMaxC= 1.00D-01 BMatC= 7.80D-07 BMatP= 7.80D-07
 IDIUse=1 WtCom= 1.00D+00 WtEn= 0.00D+00
 Coeff-Com:  0.100D+01
 Coeff:      0.100D+01
 Gap=     0.501 Goal=   None    Shift=    0.000
 Gap=     0.337 Goal=   None    Shift=    0.000
 RMSDP=5.53D-06 MaxDP=5.03D-05 DE= 8.84D-06 OVMax= 1.28D-04

 Cycle  10  Pass 1  IDiag  1:
 E= -57.0223763585351     Delta-E=       -0.000000147825 Rises=F Damp=F
 DIIS: error= 1.24D-05 at cycle   2 NSaved=   2.
 NSaved= 2 IEnMin= 2 EnMin= -57.0223763585351     IErMin= 2 ErrMin= 1.24D-05
 ErrMax= 1.24D-05  0.00D+00 EMaxC= 1.00D-01 BMatC= 2.52D-08 BMatP= 7.80D-07
 IDIUse=1 WtCom= 1.00D+00 WtEn= 0.00D+00
 Coeff-Com: -0.337D-01 0.103D+01
 Coeff:     -0.337D-01 0.103D+01
 Gap=     0.501 Goal=   None    Shift=    0.000
 Gap=     0.337 Goal=   None    Shift=    0.000
 RMSDP=3.21D-06 MaxDP=3.19D-05 DE=-1.48D-07 OVMax= 3.65D-05

 Cycle  11  Pass 1  IDiag  1:
 E= -57.0223763619129     Delta-E=       -0.000000003378 Rises=F Damp=F
 DIIS: error= 9.69D-06 at cycle   3 NSaved=   3.
 NSaved= 3 IEnMin= 3 EnMin= -57.0223763619129     IErMin= 3 ErrMin= 9.69D-06
 ErrMax= 9.69D-06  0.00D+00 EMaxC= 1.00D-01 BMatC= 1.64D-08 BMatP= 2.52D-08
 IDIUse=1 WtCom= 1.00D+00 WtEn= 0.00D+00
 Coeff-Com: -0.406D-01 0.471D+00 0.569D+00
 Coeff:     -0.406D-01 0.471D+00 0.569D+00
 Gap=     0.501 Goal=   None    Shift=    0.000
 Gap=     0.337 Goal=   None    Shift=    0.000
 RMSDP=1.48D-06 MaxDP=1.77D-05 DE=-3.38D-09 OVMax= 3.51D-05

 Cycle  12  Pass 1  IDiag  1:
 E= -57.0223763657526     Delta-E=       -0.000000003840 Rises=F Damp=F
 DIIS: error= 2.01D-06 at cycle   4 NSaved=   4.
 NSaved= 4 IEnMin= 4 EnMin= -57.0223763657526     IErMin= 4 ErrMin= 2.01D-06
 ErrMax= 2.01D-06  0.00D+00 EMaxC= 1.00D-01 BMatC= 6.50D-10 BMatP= 1.64D-08
 IDIUse=1 WtCom= 1.00D+00 WtEn= 0.00D+00
 Coeff-Com:  0.302D-02-0.109D+00 0.409D-01 0.106D+01
 Coeff:      0.302D-02-0.109D+00 0.409D-01 0.106D+01
 Gap=     0.501 Goal=   None    Shift=    0.000
 Gap=     0.337 Goal=   None    Shift=    0.000
 RMSDP=7.16D-07 MaxDP=7.52D-06 DE=-3.84D-09 OVMax= 1.83D-05

 Cycle  13  Pass 1  IDiag  1:
 E= -57.0223763661703     Delta-E=       -0.000000000418 Rises=F Damp=F
 DIIS: error= 1.42D-06 at cycle   5 NSaved=   5.
 NSaved= 5 IEnMin= 5 EnMin= -57.0223763661703     IErMin= 5 ErrMin= 1.42D-06
 ErrMax= 1.42D-06  0.00D+00 EMaxC= 1.00D-01 BMatC= 7.87D-11 BMatP= 6.50D-10
 IDIUse=1 WtCom= 1.00D+00 WtEn= 0.00D+00
 Coeff-Com:  0.323D-02-0.264D-01-0.375D-01-0.251D+00 0.131D+01
 Coeff:      0.323D-02-0.264D-01-0.375D-01-0.251D+00 0.131D+01
 Gap=     0.501 Goal=   None    Shift=    0.000
 Gap=     0.337 Goal=   None    Shift=    0.000
 RMSDP=4.99D-07 MaxDP=5.04D-06 DE=-4.18D-10 OVMax= 1.63D-05

 Cycle  14  Pass 1  IDiag  1:
 E= -57.0223763663039     Delta-E=       -0.000000000134 Rises=F Damp=F
 DIIS: error= 7.33D-07 at cycle   6 NSaved=   6.
 NSaved= 6 IEnMin= 6 EnMin= -57.0223763663039     IErMin= 6 ErrMin= 7.33D-07
 ErrMax= 7.33D-07  0.00D+00 EMaxC= 1.00D-01 BMatC= 1.90D-11 BMatP= 7.87D-11
 IDIUse=1 WtCom= 1.00D+00 WtEn= 0.00D+00
 Coeff-Com: -0.105D-02 0.243D-01 0.107D-01-0.190D+00-0.246D+00 0.140D+01
 Coeff:     -0.105D-02 0.243D-01 0.107D-01-0.190D+00-0.246D+00 0.140D+01
 Gap=     0.501 Goal=   None    Shift=    0.000
 Gap=     0.337 Goal=   None    Shift=    0.000
 RMSDP=3.35D-07 MaxDP=3.35D-06 DE=-1.34D-10 OVMax= 1.14D-05

 Cycle  15  Pass 1  IDiag  1:
 E= -57.0223763663428     Delta-E=       -0.000000000039 Rises=F Damp=F
 DIIS: error= 2.70D-07 at cycle   7 NSaved=   7.
 NSaved= 7 IEnMin= 7 EnMin= -57.0223763663428     IErMin= 7 ErrMin= 2.70D-07
 ErrMax= 2.70D-07  0.00D+00 EMaxC= 1.00D-01 BMatC= 2.00D-12 BMatP= 1.90D-11
 IDIUse=1 WtCom= 1.00D+00 WtEn= 0.00D+00
 Coeff-Com: -0.171D-03-0.376D-02 0.600D-02 0.944D-01-0.931D-01-0.564D+00
 Coeff-Com:  0.156D+01
 Coeff:     -0.171D-03-0.376D-02 0.600D-02 0.944D-01-0.931D-01-0.564D+00
 Coeff:      0.156D+01
 Gap=     0.501 Goal=   None    Shift=    0.000
 Gap=     0.337 Goal=   None    Shift=    0.000
 RMSDP=1.38D-07 MaxDP=1.19D-06 DE=-3.89D-11 OVMax= 5.01D-06

 Cycle  16  Pass 1  IDiag  1:
 E= -57.0223763663476     Delta-E=       -0.000000000005 Rises=F Damp=F
 DIIS: error= 4.82D-08 at cycle   8 NSaved=   8.
 NSaved= 8 IEnMin= 8 EnMin= -57.0223763663476     IErMin= 8 ErrMin= 4.82D-08
 ErrMax= 4.82D-08  0.00D+00 EMaxC= 1.00D-01 BMatC= 8.03D-14 BMatP= 2.00D-12
 IDIUse=1 WtCom= 1.00D+00 WtEn= 0.00D+00
 Coeff-Com:  0.103D-03-0.683D-03-0.156D-02-0.986D-02 0.329D-01 0.438D-01
 Coeff-Com: -0.364D+00 0.130D+01
 Coeff:      0.103D-03-0.683D-03-0.156D-02-0.986D-02 0.329D-01 0.438D-01
 Coeff:     -0.364D+00 0.130D+01
 Gap=     0.501 Goal=   None    Shift=    0.000
 Gap=     0.337 Goal=   None    Shift=    0.000
 RMSDP=2.04D-08 MaxDP=2.09D-07 DE=-4.85D-12 OVMax= 7.78D-07

 Cycle  17  Pass 1  IDiag  1:
 E= -57.0223763663481     Delta-E=       -0.000000000000 Rises=F Damp=F
 DIIS: error= 8.65D-09 at cycle   9 NSaved=   9.
 NSaved= 9 IEnMin= 9 EnMin= -57.0223763663481     IErMin= 9 ErrMin= 8.65D-09
 ErrMax= 8.65D-09  0.00D+00 EMaxC= 1.00D-01 BMatC= 6.56D-15 BMatP= 8.03D-14
 IDIUse=1 WtCom= 1.00D+00 WtEn= 0.00D+00
 Coeff-Com: -0.719D-05 0.355D-03-0.724D-05-0.456D-02 0.110D-02 0.273D-01
 Coeff-Com: -0.287D-01-0.245D+00 0.125D+01
 Coeff:     -0.719D-05 0.355D-03-0.724D-05-0.456D-02 0.110D-02 0.273D-01
 Coeff:     -0.287D-01-0.245D+00 0.125D+01
 Gap=     0.501 Goal=   None    Shift=    0.000
 Gap=     0.337 Goal=   None    Shift=    0.000
 RMSDP=3.56D-09 MaxDP=3.16D-08 DE=-4.83D-13 OVMax= 9.00D-08

 SCF Done:  E(UwB97XD) =  -57.0223763663     A.U. after   17 cycles
            NFock= 17  Conv=0.36D-08     -V/T= 2.0084
 <Sx>= 0.0000 <Sy>= 0.0000 <Sz>= 0.5000 <S**2>= 0.7571 S= 0.5036
 <L.S>=  0.00000000000    
 KE= 5.654734525270D+01 PE=-1.609025129044D+02 EE= 3.320392696783D+01
 Annihilation of the first spin contaminant:
 S**2 before annihilation     0.7571,   after     0.7500
 Leave Link  502 at Sat Sep 14 12:15:55 2024, MaxMem=   268435456 cpu:         8.3
 (Enter /g100_work/pMI24_ChiCa/g09d1/g09d01/d01/build-node-6-2-59348/src/main/l801.exe)
 DoSCS=F DFT=T ScalE2(SS,OS)=  1.000000  1.000000
 Range of M.O.s used for correlation:     1    35
 NBasis=    35 NAE=     6 NBE=     5 NFC=     0 NFV=     0
 NROrb=     35 NOA=     6 NOB=     5 NVA=    29 NVB=    30
 Leave Link  801 at Sat Sep 14 12:15:55 2024, MaxMem=   268435456 cpu:         0.1
 (Enter /g100_work/pMI24_ChiCa/g09d1/g09d01/d01/build-node-6-2-59348/src/main/l1101.exe)
 Using compressed storage, NAtomX=     5.
 Will process      6 centers per pass.
 R6Disp: Adding Grimme-D2 dispersion energy 1st derivatives to the gradient.
 Leave Link 1101 at Sat Sep 14 12:15:56 2024, MaxMem=   268435456 cpu:         1.4
 (Enter /g100_work/pMI24_ChiCa/g09d1/g09d01/d01/build-node-6-2-59348/src/main/l1102.exe)
 Symmetrizing basis deriv contribution to polar:
 IMax=3 JMax=2 DiffMx= 0.00D+00
 Leave Link 1102 at Sat Sep 14 12:15:56 2024, MaxMem=   268435456 cpu:         0.2
 (Enter /g100_work/pMI24_ChiCa/g09d1/g09d01/d01/build-node-6-2-59348/src/main/l1110.exe)
 Forming Gx(P) for the SCF density, NAtomX=     5.
 Integral derivatives from FoFJK, PRISM(SPDF).
 Do as many integral derivatives as possible in FoFJK.
 G2DrvN: MDV=     268435312.
 G2DrvN: will do     6 centers at a time, making    1 passes.
 Calling FoFCou, ICntrl=  3107 FMM=F I1Cent=   0 AccDes= 0.00D+00.
 FoFJK:  IHMeth= 1 ICntrl=    3107 DoSepK=T KAlg= 0 I1Cent=   0 FoldK=F
 IRaf=         1 NMat=   1 IRICut=       1 DoRegI=T DoRafI=F ISym2E= 0.
 FoFCou: FMM=F IPFlag=           0 FMFlag=      100000 FMFlg1=           0
         NFxFlg=           0 DoJE=F BraDBF=F KetDBF=F FulRan=T
         wScrn=  0.000000 ICntrl=    3507 IOpCl=  0 I1Cent=           0 NGrid=           0
         NMat0=    1 NMatS0=      1 NMatT0=    0 NMatD0=    1 NMtDS0=    0 NMtDT0=    0
 Symmetry not used in FoFCou.
 End of G2Drv F.D. properties file   721 does not exist.
 End of G2Drv F.D. properties file   722 does not exist.
 End of G2Drv F.D. properties file   788 does not exist.
 Leave Link 1110 at Sat Sep 14 12:15:56 2024, MaxMem=   268435456 cpu:         4.9
 (Enter /g100_work/pMI24_ChiCa/g09d1/g09d01/d01/build-node-6-2-59348/src/main/l1002.exe)
 Minotr:  UHF open shell wavefunction.
          IDoAtm=11111
          Direct CPHF calculation.
          Differentiating once with respect to nuclear coordinates.
          Requested convergence is 1.0D-08 RMS, and 1.0D-07 maximum.
          Secondary convergence is 1.0D-12 RMS, and 1.0D-12 maximum.
          NewPWx=T KeepS1=F KeepF1=F KeepIn=T MapXYZ=F SortEE=F KeepMc=T.
          MDV=     268435332 using IRadAn=       2.
 Generate precomputed XC quadrature information.
 Keep R1 and R2 ints in memory in canonical form, NReq=1655389.
 FoFCou: FMM=F IPFlag=           0 FMFlag=           0 FMFlg1=           0
         NFxFlg=           0 DoJE=F BraDBF=F KetDBF=F FulRan=T
         wScrn=  0.000000 ICntrl=     600 IOpCl=  0 I1Cent=           0 NGrid=           0
         NMat0=    1 NMatS0=    630 NMatT0=    0 NMatD0=    1 NMtDS0=    0 NMtDT0=    0
 Symmetry not used in FoFCou.
          Solving linear equations simultaneously, MaxMat=       0.
          There are    18 degrees of freedom in the 1st order CPHF.  IDoFFX=6 NUNeed=     0.
     12 vectors produced by pass  0 Test12= 1.80D-15 5.56D-09 XBig12= 1.03D-01 2.08D-01.
 AX will form    12 AO Fock derivatives at one time.
     12 vectors produced by pass  1 Test12= 1.80D-15 5.56D-09 XBig12= 5.73D-03 3.05D-02.
     12 vectors produced by pass  2 Test12= 1.80D-15 5.56D-09 XBig12= 3.53D-04 7.82D-03.
     12 vectors produced by pass  3 Test12= 1.80D-15 5.56D-09 XBig12= 2.35D-06 4.36D-04.
     12 vectors produced by pass  4 Test12= 1.80D-15 5.56D-09 XBig12= 1.58D-08 5.10D-05.
     12 vectors produced by pass  5 Test12= 1.80D-15 5.56D-09 XBig12= 8.08D-11 3.53D-06.
      6 vectors produced by pass  6 Test12= 1.80D-15 5.56D-09 XBig12= 4.69D-13 1.73D-07.
      1 vectors produced by pass  7 Test12= 1.80D-15 5.56D-09 XBig12= 1.54D-15 1.19D-08.
 InvSVY:  IOpt=1 It=  1 EMax= 1.44D-15
 Solved reduced A of dimension    79 with    12 vectors.
 End of Minotr F.D. properties file   721 does not exist.
 End of Minotr F.D. properties file   722 does not exist.
 End of Minotr F.D. properties file   788 does not exist.
 Leave Link 1002 at Sat Sep 14 12:15:57 2024, MaxMem=   268435456 cpu:         7.2
 (Enter /g100_work/pMI24_ChiCa/g09d1/g09d01/d01/build-node-6-2-59348/src/main/l601.exe)
 Copying SCF densities to generalized density rwf, IOpCl= 1 IROHF=0.

 **********************************************************************

            Population analysis using the SCF density.

 **********************************************************************

 Alpha  occ. eigenvalues --  -14.46404  -0.97085  -0.58994  -0.56055  -0.40149
 Alpha  occ. eigenvalues --   -0.32812
 Alpha virt. eigenvalues --    0.17291   0.23921   0.30588   0.72010   0.74589
 Alpha virt. eigenvalues --    0.77491   0.82633   0.94843   0.96887   1.02403
 Alpha virt. eigenvalues --    1.22080   1.45759   1.48765   1.79603   1.88604
 Alpha virt. eigenvalues --    1.98083   2.09244   2.26325   2.35093   2.42487
 Alpha virt. eigenvalues --    2.45565   2.70654   2.93554   2.93827   3.04103
 Alpha virt. eigenvalues --    3.35204   3.51009   3.82325   4.14008
  Beta  occ. eigenvalues --  -14.45446  -0.94123  -0.55152  -0.54331  -0.36815
  Beta virt. eigenvalues --   -0.03142   0.18064   0.24353   0.32687   0.73222
  Beta virt. eigenvalues --    0.74667   0.80649   0.87895   0.95539   0.98279
  Beta virt. eigenvalues --    1.04840   1.23359   1.47923   1.49717   1.82839
  Beta virt. eigenvalues --    1.93498   2.03191   2.13402   2.27385   2.35791
  Beta virt. eigenvalues --    2.44587   2.48801   2.73869   2.94256   2.95442
  Beta virt. eigenvalues --    3.05358   3.36730   3.51603   3.85111   4.16844
     Alpha Molecular Orbital Coefficients:
                           1         2         3         4         5
                           O         O         O         O         O
     Eigenvalues --   -14.46404  -0.97085  -0.58994  -0.56055  -0.40149
   1 1   N  1S          0.99285  -0.20014   0.01989   0.00000  -0.08597
   2        2S          0.03418   0.42162  -0.04200  -0.00000   0.19624
   3        2PX         0.00037   0.04440   0.34559   0.08405  -0.07012
   4        2PY        -0.00127  -0.08948   0.09980   0.28866   0.40323
   5        2PZ         0.00087   0.05699  -0.14916   0.38783  -0.28494
   6        3S          0.00335   0.43607  -0.05987  -0.00002   0.35102
   7        3PX        -0.00006   0.02728   0.17917   0.04185  -0.09397
   8        3PY         0.00032  -0.04149   0.04435   0.14374   0.29423
   9        3PZ        -0.00022   0.02498  -0.07183   0.19313  -0.19864
  10        4XX        -0.00775  -0.00054   0.02512   0.00103   0.00892
  11        4YY        -0.00770  -0.00872  -0.00946  -0.02988  -0.02195
  12        4ZZ        -0.00766  -0.00871  -0.01024   0.02885  -0.00918
  13        4XY         0.00003  -0.00146  -0.01196  -0.00297   0.00805
  14        4XZ         0.00002  -0.00094   0.00084   0.00637  -0.00803
  15        4YZ         0.00007   0.00037   0.00462  -0.01078   0.01780
  16 2   H  1S          0.00006   0.14692  -0.10636   0.24185  -0.10381
  17        2S         -0.00027   0.01559  -0.06430   0.16092  -0.10425
  18        3PX        -0.00001   0.00062   0.00896   0.00251  -0.00213
  19        3PY         0.00002  -0.00194   0.00319   0.00651   0.01257
  20        3PZ         0.00033  -0.01854   0.00505  -0.00767  -0.00137
  21 3   H  1S          0.00027   0.11017   0.27437  -0.00000  -0.01576
  22        2S         -0.00049   0.00321   0.17547   0.00002   0.06206
  23        3PX        -0.00000  -0.01275  -0.00057   0.00187  -0.01570
  24        3PY        -0.00000  -0.00250  -0.00406   0.00643   0.01217
  25        3PZ         0.00000   0.00463   0.00314   0.00864  -0.00566
  26 4   H  1S          0.00006   0.14692  -0.10639  -0.24187  -0.10380
  27        2S         -0.00027   0.01559  -0.06431  -0.16092  -0.10422
  28        3PX        -0.00010   0.00600   0.00642  -0.00313  -0.00417
  29        3PY        -0.00030   0.01651  -0.00552  -0.00863   0.00557
  30        3PZ        -0.00010   0.00626  -0.00665   0.00481  -0.01077
  31 5   H  1S         -0.00006   0.03125   0.20941  -0.00003  -0.15053
  32        2S          0.00015   0.01993   0.18161  -0.00004  -0.25448
  33        3PX         0.00005  -0.00351  -0.01161   0.00028   0.00408
  34        3PY        -0.00002   0.00130   0.00439   0.00095   0.00035
  35        3PZ         0.00000  -0.00020  -0.00074   0.00128  -0.00115
                           6         7         8         9        10
                           O         V         V         V         V
     Eigenvalues --    -0.32812   0.17291   0.23921   0.30588   0.72010
   1 1   N  1S          0.01021  -0.11173   0.00001   0.06177   0.01399
   2        2S         -0.02192   0.16013  -0.00002  -0.08899  -0.01587
   3        2PX        -0.46663  -0.07701   0.07199  -0.25673   0.05629
   4        2PY         0.14723  -0.18950   0.24719  -0.11684  -0.46988
   5        2PZ        -0.00840   0.15779   0.33208   0.14255   0.33718
   6        3S         -0.11597   1.60459  -0.00008  -0.90157  -0.45540
   7        3PX        -0.38416  -0.07143   0.16628  -0.88366  -0.13369
   8        3PY         0.13125  -0.46179   0.57085  -0.16998   0.59790
   9        3PZ        -0.01441   0.35927   0.76688   0.31808  -0.41502
  10        4XX        -0.00162  -0.02584   0.00352   0.02973  -0.12040
  11        4YY        -0.00145  -0.02844  -0.00372   0.01250   0.01600
  12        4ZZ         0.00621  -0.03438   0.00021   0.01410   0.01075
  13        4XY         0.01582  -0.00347   0.00634   0.01671   0.00129
  14        4XZ        -0.00970  -0.00127   0.00939  -0.01914   0.03380
  15        4YZ         0.00356  -0.01024  -0.00280  -0.01191   0.00181
  16 2   H  1S          0.00204  -0.08255  -0.10661  -0.01896   0.16832
  17        2S          0.03925  -1.14178  -1.38046  -0.30653  -0.03069
  18        3PX        -0.01198  -0.00325   0.00114  -0.00754   0.03156
  19        3PY         0.00409  -0.00135   0.00653  -0.00362  -0.00303
  20        3PZ         0.00083  -0.01067  -0.00512   0.00392  -0.03853
  21 3   H  1S         -0.00841  -0.00887   0.00000   0.28735  -0.64755
  22        2S          0.05120  -0.30483  -0.00009   2.71523   1.07592
  23        3PX         0.02658   0.00314   0.00106   0.01060  -0.04010
  24        3PY        -0.00074  -0.00299   0.00365   0.00013   0.03148
  25        3PZ        -0.00521   0.00154   0.00490  -0.00238  -0.01464
  26 4   H  1S          0.00200  -0.08256   0.10663  -0.01880   0.16924
  27        2S          0.03922  -1.14160   1.38064  -0.30634  -0.03079
  28        3PX        -0.01232   0.00011  -0.00115  -0.00745   0.04075
  29        3PY         0.00290   0.01015  -0.00655  -0.00324   0.02853
  30        3PZ        -0.00076   0.00480   0.00511   0.00444   0.00391
  31 5   H  1S          0.31590   0.07055  -0.00001   0.01515  -0.49022
  32        2S          0.52011   0.24127   0.00004  -1.69329   0.18121
  33        3PX        -0.00287   0.00109  -0.00025  -0.02224   0.07233
  34        3PY         0.00317   0.00019  -0.00086   0.01922   0.00079
  35        3PZ        -0.00173  -0.00037  -0.00115  -0.00944  -0.01626
                          11        12        13        14        15
                           V         V         V         V         V
     Eigenvalues --     0.74589   0.77491   0.82633   0.94843   0.96887
   1 1   N  1S         -0.00002   0.00290   0.02233  -0.00000   0.02574
   2        2S          0.00018   0.04906  -0.11832   0.00002  -0.41822
   3        2PX        -0.06288  -0.75232   0.21080   0.14966   0.48955
   4        2PY        -0.21529   0.37304  -0.18454   0.51413   0.43804
   5        2PZ        -0.29046  -0.11448   0.09171   0.69086  -0.43190
   6        3S          0.00018   0.02088   0.04044  -0.00003   0.74663
   7        3PX         0.18771   1.11321   0.07448  -0.25917  -1.15619
   8        3PY         0.64359  -0.28154   0.43298  -0.89016  -0.75118
   9        3PZ         0.86612  -0.03199  -0.33840  -1.19614   0.80904
  10        4XX         0.01664  -0.04212  -0.11332   0.01664  -0.15001
  11        4YY         0.11354   0.07636   0.02622   0.16372   0.02020
  12        4ZZ        -0.12997   0.09914   0.06221  -0.18037   0.06669
  13        4XY         0.05190   0.02829   0.04255   0.06047   0.07875
  14        4XZ         0.02781   0.02138   0.02254   0.02170   0.00434
  15        4YZ         0.03216   0.03778   0.05699   0.04949   0.05270
  16 2   H  1S         -0.65246   0.27894   0.44275  -0.42198   0.39247
  17        2S          0.12468  -0.16159  -0.09475   1.38558  -1.11759
  18        3PX         0.01066   0.01205   0.00971   0.00658   0.00662
  19        3PY         0.02819   0.02085   0.02980   0.02185   0.01640
  20        3PZ         0.00599   0.03531   0.02743  -0.13894   0.11588
  21 3   H  1S          0.00024  -0.29336  -0.07110   0.00008  -0.25020
  22        2S         -0.00067  -0.08801   0.02827  -0.00023   1.72200
  23        3PX         0.01098   0.08168   0.08471   0.00281  -0.08749
  24        3PY         0.03765   0.01205  -0.01458   0.00972   0.05186
  25        3PZ         0.05062  -0.02667  -0.00758   0.01306  -0.01959
  26 4   H  1S          0.65236   0.27871   0.44301   0.42187   0.39218
  27        2S         -0.12495  -0.16152  -0.09500  -1.38537  -1.11776
  28        3PX        -0.00277  -0.00241  -0.00430  -0.03940  -0.02849
  29        3PY        -0.00106  -0.02884  -0.01832  -0.13457  -0.10404
  30        3PZ         0.03056  -0.03145  -0.03715  -0.01251  -0.04595
  31 5   H  1S          0.00022  -0.03913   0.95444  -0.00011  -0.29063
  32        2S          0.00017  -0.09128  -0.87851   0.00017  -0.28067
  33        3PX         0.00691  -0.00490   0.02555  -0.00191   0.02750
  34        3PY         0.02366  -0.01002   0.00947  -0.00647   0.01832
  35        3PZ         0.03183   0.00850  -0.01260  -0.00871  -0.01955
                          16        17        18        19        20
                           V         V         V         V         V
     Eigenvalues --     1.02403   1.22080   1.45759   1.48765   1.79603
   1 1   N  1S         -0.03110  -0.08227  -0.00000   0.00462  -0.03863
   2        2S          0.67615  -1.40219  -0.00003   0.15072  -0.58456
   3        2PX         0.21816  -0.14541   0.00284   0.04432  -0.11861
   4        2PY         0.16762   0.05986   0.00981  -0.00932  -0.00660
   5        2PZ        -0.17187  -0.01309   0.01332  -0.00267   0.03053
   6        3S         -1.56494   3.70173   0.00011  -0.42347   1.47883
   7        3PX        -0.62835   0.55676  -0.03116  -0.33868   0.43920
   8        3PY        -0.38133  -0.44957  -0.10655  -0.09129  -0.33363
   9        3PZ         0.41954   0.21424  -0.14309   0.14154   0.15337
  10        4XX        -0.00692  -0.28507   0.18869   0.14517   0.08093
  11        4YY         0.13926  -0.17914  -0.21099  -0.13126  -0.33768
  12        4ZZ         0.07859  -0.31402   0.02229   0.02046  -0.00594
  13        4XY        -0.05048  -0.19662   0.33788  -0.27720   0.47676
  14        4XZ         0.04927   0.12576   0.50546   0.27158  -0.34703
  15        4YZ        -0.07468  -0.11861  -0.15332   0.52612   0.28220
  16 2   H  1S         -0.37172  -0.30983   0.05762  -0.02776  -0.29588
  17        2S          0.13038  -0.65271   0.03521  -0.03125  -0.21527
  18        3PX         0.03401   0.06711   0.24916   0.10948  -0.15830
  19        3PY        -0.04171  -0.06885  -0.10098   0.26600   0.13441
  20        3PZ        -0.03662   0.00390   0.00269  -0.01043  -0.03008
  21 3   H  1S         -0.85919  -0.29930   0.00009  -0.04646  -0.36386
  22        2S          2.51443  -1.03621  -0.00010   0.61437  -0.21737
  23        3PX        -0.02237   0.07528   0.05321   0.00380  -0.13259
  24        3PY        -0.03045  -0.13947   0.18222  -0.20793   0.02979
  25        3PZ         0.02750   0.08738   0.24561   0.15346   0.00611
  26 4   H  1S         -0.37194  -0.30967  -0.05771  -0.02763  -0.29584
  27        2S          0.13045  -0.65269  -0.03525  -0.03117  -0.21521
  28        3PX         0.05027   0.07606  -0.25394   0.05300  -0.16837
  29        3PY         0.01434  -0.03837   0.08394   0.06929   0.10133
  30        3PZ         0.03867   0.04490  -0.02649  -0.27433  -0.07444
  31 5   H  1S          0.49845   0.17163  -0.00005  -0.08576   0.24408
  32        2S         -1.41939   0.16143   0.00010  -0.19772  -0.14330
  33        3PX         0.08057  -0.02777   0.02053  -0.06855   0.14271
  34        3PY        -0.02227  -0.09674   0.07031  -0.04625  -0.26900
  35        3PZ        -0.00089   0.07789   0.09477   0.04918   0.16828
                          21        22        23        24        25
                           V         V         V         V         V
     Eigenvalues --     1.88604   1.98083   2.09244   2.26325   2.35093
   1 1   N  1S         -0.00002  -0.02787  -0.06189   0.00001  -0.00001
   2        2S         -0.00044  -0.53197  -0.26038  -0.00008  -0.00020
   3        2PX         0.01022  -0.09361   0.16871   0.00617  -0.03930
   4        2PY         0.03530   0.04326   0.04360   0.02134  -0.13482
   5        2PZ         0.04754  -0.01186  -0.06904   0.02870  -0.18109
   6        3S          0.00108   1.37126   1.21065   0.00007   0.00050
   7        3PX        -0.03195   0.30941   0.09691  -0.06694   0.08168
   8        3PY        -0.11153  -0.35510  -0.27457  -0.23030   0.27925
   9        3PZ        -0.14984   0.19712   0.18339  -0.30951   0.37508
  10        4XX        -0.05759   0.07728  -0.66572  -0.00902  -0.08603
  11        4YY        -0.02989  -0.13424   0.09687   0.01405  -0.52887
  12        4ZZ         0.08735  -0.02565   0.27110  -0.00495   0.61492
  13        4XY        -0.11851  -0.00478   0.33954  -0.01605  -0.25960
  14        4XZ        -0.14266   0.01327   0.01062  -0.02544  -0.15248
  15        4YZ         0.01450   0.21634   0.17481   0.00887  -0.14599
  16 2   H  1S          0.00670  -0.29046  -0.43716   0.13673  -0.49525
  17        2S          0.05565  -0.13612  -0.05165   0.06882   0.13641
  18        3PX        -0.23941   0.15979  -0.06110   0.27674   0.20763
  19        3PY        -0.05419   0.04514   0.06171   0.61659  -0.07733
  20        3PZ        -0.00878  -0.03381  -0.15006   0.06366  -0.32458
  21 3   H  1S         -0.00014  -0.00920   0.05869  -0.00016  -0.00015
  22        2S         -0.00056  -0.68252  -0.79126  -0.00000  -0.00052
  23        3PX         0.07912   0.05877   0.28611  -0.02529  -0.04345
  24        3PY         0.27144   0.33773   0.01067  -0.08683  -0.14951
  25        3PZ         0.36518  -0.26365  -0.07003  -0.11666  -0.20060
  26 4   H  1S         -0.00711  -0.29049  -0.43722  -0.13662   0.49520
  27        2S         -0.05573  -0.13619  -0.05168  -0.06884  -0.13641
  28        3PX         0.21165   0.15078  -0.02946  -0.11895  -0.29917
  29        3PY        -0.03954   0.01311   0.17087  -0.07498  -0.23610
  30        3PZ        -0.11737  -0.07704  -0.00323   0.66409  -0.09661
  31 5   H  1S          0.00022   0.15441  -0.18998   0.00000  -0.00008
  32        2S         -0.00000   0.09650   0.47460  -0.00004   0.00027
  33        3PX         0.12464   0.38297  -0.40145   0.06462   0.02756
  34        3PY         0.42606   0.47133   0.16144   0.22117   0.09460
  35        3PZ         0.57390  -0.43340  -0.03283   0.29711   0.12667
                          26        27        28        29        30
                           V         V         V         V         V
     Eigenvalues --     2.42487   2.45565   2.70654   2.93554   2.93827
   1 1   N  1S          0.00002  -0.00552  -0.05083  -0.04245   0.00110
   2        2S          0.00019  -0.14486   0.06519  -0.16055   0.00380
   3        2PX        -0.01432  -0.03583   0.03152   0.07421  -0.01908
   4        2PY        -0.04929  -0.04582  -0.07866  -0.08605  -0.05670
   5        2PZ        -0.06642   0.04185   0.05161   0.04473  -0.08030
   6        3S         -0.00066   0.38665   0.65297   1.00344  -0.02528
   7        3PX        -0.02788   0.57182   0.13577   0.34620   0.04066
   8        3PY        -0.09366   0.08342   0.12300  -0.39580   0.17829
   9        3PZ        -0.12554  -0.18625  -0.12069   0.22862   0.22050
  10        4XX         0.06890   0.16918   0.49670   0.16373   0.23221
  11        4YY        -0.39152  -0.03585  -0.43503   0.08555  -0.11362
  12        4ZZ         0.32256  -0.08213  -0.26394  -0.27339  -0.11781
  13        4XY         0.07162  -0.02489   0.34807  -0.18081   0.45382
  14        4XZ         0.22535  -0.06304  -0.47267  -0.05223   0.61573
  15        4YZ        -0.16527  -0.10027  -0.01117  -0.62566  -0.12409
  16 2   H  1S         -0.13692   0.05340   0.06791  -0.11206   0.00175
  17        2S          0.17436  -0.00027  -0.08567  -0.21655  -0.07352
  18        3PX        -0.35441  -0.44278   0.45720  -0.10988  -0.47313
  19        3PY         0.39266   0.08432  -0.08030   0.66282   0.01031
  20        3PZ        -0.11650   0.07783   0.14521   0.13093  -0.09524
  21 3   H  1S          0.00065  -0.40038  -0.53855  -0.31381   0.00776
  22        2S          0.00048  -0.33448  -0.53416  -0.45438   0.01144
  23        3PX         0.07541   0.03443   0.17562   0.20221  -0.13309
  24        3PY         0.25946  -0.43946  -0.09368   0.35816  -0.44707
  25        3PZ         0.34808   0.32023   0.03162  -0.33384  -0.58122
  26 4   H  1S          0.13676   0.05330   0.06807  -0.11199   0.00386
  27        2S         -0.17424  -0.00038  -0.08567  -0.21271   0.08442
  28        3PX         0.38170  -0.45394   0.40812  -0.25094   0.43394
  29        3PY        -0.30053   0.04253  -0.25227   0.09487  -0.19183
  30        3PZ         0.24018   0.02237  -0.08548  -0.62553  -0.11031
  31 5   H  1S          0.00008  -0.02308   0.00456   0.05388  -0.00132
  32        2S         -0.00028   0.14060   0.38213   0.16365  -0.00415
  33        3PX        -0.07701  -0.01667  -0.51136  -0.22114   0.06405
  34        3PY        -0.26491   0.49991   0.21876  -0.04444   0.20171
  35        3PZ        -0.35513  -0.36877  -0.05163   0.09195   0.26760
                          31        32        33        34        35
                           V         V         V         V         V
     Eigenvalues --     3.04103   3.35204   3.51009   3.82325   4.14008
   1 1   N  1S         -0.08424  -0.17830   0.00000  -0.28850  -0.32970
   2        2S          0.01751   0.69958  -0.00006   0.58196   0.67039
   3        2PX         0.05483  -0.12866   0.13755   0.24134  -0.27516
   4        2PY        -0.14193  -0.34724   0.47225   0.28815   0.18159
   5        2PZ         0.09376   0.28633   0.63452  -0.26677  -0.07553
   6        3S          1.30133   1.43463   0.00015   1.77435   2.29023
   7        3PX         0.72530  -0.40363   0.17108   0.57894   0.09780
   8        3PY        -0.02706  -0.43726   0.58707   0.09620  -0.17069
   9        3PZ        -0.13723   0.41301   0.78880  -0.19688   0.10581
  10        4XX         0.21291  -1.03824  -0.06298  -0.26666  -1.50231
  11        4YY        -0.32319  -0.05814  -1.03443  -1.30825  -1.11391
  12        4ZZ        -0.13766   0.08773   1.09748  -1.36543  -1.21590
  13        4XY        -0.27449   0.34767  -0.29888  -0.10074  -0.14605
  14        4XZ         0.21816   0.04633  -0.03048  -0.23427   0.17856
  15        4YZ         0.56974   0.12895  -0.33081  -0.14592  -0.06122
  16 2   H  1S         -0.12419  -0.54752  -0.89408   0.46772   0.21306
  17        2S         -0.12609  -0.54529  -0.56432  -0.09693  -0.33444
  18        3PX        -0.39769   0.09928  -0.04516  -0.04652  -0.03693
  19        3PY        -0.36504   0.07390  -0.03388   0.00071   0.03868
  20        3PZ         0.29741   0.81397   1.03379  -0.51434  -0.30609
  21 3   H  1S         -0.44372   0.37485  -0.00005  -0.00681   0.04993
  22        2S         -0.96871   0.33147  -0.00015  -0.77886  -0.63955
  23        3PX         0.28321   0.00516  -0.02355   0.95530  -1.12163
  24        3PY         0.42620  -0.17186  -0.08096  -0.19712   0.26144
  25        3PZ        -0.37771   0.12625  -0.10888  -0.06075   0.04899
  26 4   H  1S         -0.12412  -0.54757   0.89400   0.46776   0.21317
  27        2S         -0.12634  -0.54520   0.56431  -0.09685  -0.33454
  28        3PX        -0.38183  -0.14165   0.31555   0.09549   0.04018
  29        3PY        -0.30870  -0.75418   0.96254   0.48779   0.30407
  30        3PZ         0.37311  -0.29852   0.21392   0.14007   0.05039
  31 5   H  1S          0.07315  -0.12490  -0.00001  -0.28568   0.38106
  32        2S          0.37093  -0.16923   0.00008   0.14858   0.27185
  33        3PX        -0.31673   0.35426   0.00160   0.58446  -0.59353
  34        3PY        -0.04173  -0.06327   0.00552  -0.20166   0.27878
  35        3PZ         0.09964  -0.02979   0.00744   0.02304  -0.07828
     Beta Molecular Orbital Coefficients:
                           1         2         3         4         5
                           O         O         O         O         O
     Eigenvalues --   -14.45446  -0.94123  -0.55152  -0.54331  -0.36815
   1 1   N  1S          0.99324  -0.19664   0.00000   0.00656  -0.09061
   2        2S          0.03278   0.40533   0.00000  -0.01830   0.20567
   3        2PX         0.00021   0.02337   0.08189   0.30131  -0.13547
   4        2PY        -0.00123  -0.08498   0.28109   0.15687   0.38458
   5        2PZ         0.00087   0.05820   0.37761  -0.18215  -0.25689
   6        3S          0.00218   0.42755  -0.00001  -0.02016   0.38778
   7        3PX        -0.00027   0.02256   0.04112   0.15603  -0.13973
   8        3PY         0.00031  -0.04003   0.14118   0.07803   0.30605
   9        3PZ        -0.00017   0.02491   0.18966  -0.09195  -0.19751
  10        4XX        -0.00748  -0.01086   0.00070   0.02787  -0.00400
  11        4YY        -0.00682  -0.00407  -0.02834  -0.01261  -0.01672
  12        4ZZ        -0.00674  -0.00286   0.02764  -0.01167  -0.00393
  13        4XY         0.00019   0.00345  -0.00336  -0.01051   0.01215
  14        4XZ         0.00006  -0.00052   0.00533  -0.00106  -0.00670
  15        4YZ         0.00008   0.00047  -0.01010   0.00658   0.01632
  16 2   H  1S         -0.00006   0.15428   0.24759  -0.12357  -0.08423
  17        2S         -0.00014   0.02353   0.17102  -0.08342  -0.09516
  18        3PX         0.00001   0.00033   0.00271   0.00879  -0.00466
  19        3PY         0.00002  -0.00208   0.00665   0.00515   0.01266
  20        3PZ         0.00041  -0.01825  -0.00823   0.00505  -0.00205
  21 3   H  1S          0.00037   0.11334   0.00004   0.29832  -0.08032
  22        2S         -0.00004   0.01191   0.00006   0.25219  -0.02853
  23        3PX        -0.00009  -0.01306   0.00186  -0.00197  -0.01329
  24        3PY        -0.00003  -0.00270   0.00639  -0.00287   0.01311
  25        3PZ         0.00004   0.00483   0.00857   0.00254  -0.00687
  26 4   H  1S         -0.00006   0.15429  -0.24765  -0.12353  -0.08423
  27        2S         -0.00014   0.02353  -0.17104  -0.08337  -0.09513
  28        3PX        -0.00010   0.00568  -0.00344   0.00586  -0.00639
  29        3PY        -0.00038   0.01626  -0.00916  -0.00488   0.00675
  30        3PZ        -0.00012   0.00640   0.00486  -0.00842  -0.01000
  31 5   H  1S         -0.00004   0.02700   0.00001   0.14190  -0.11652
  32        2S          0.00003   0.02002  -0.00001   0.11060  -0.20811
  33        3PX         0.00004  -0.00360   0.00025  -0.01205   0.00810
  34        3PY        -0.00002   0.00118   0.00084   0.00363  -0.00028
  35        3PZ         0.00000  -0.00010   0.00113  -0.00009  -0.00155
                           6         7         8         9        10
                           V         V         V         V         V
     Eigenvalues --    -0.03142   0.18064   0.24353   0.32687   0.73222
   1 1   N  1S          0.02410  -0.11048   0.00001   0.06278   0.01558
   2        2S         -0.04745   0.14732  -0.00001  -0.07831  -0.00674
   3        2PX        -0.41161  -0.09674   0.07154  -0.25417   0.02536
   4        2PY         0.11105  -0.18847   0.24562  -0.11376  -0.45405
   5        2PZ         0.00659   0.16129   0.32999   0.13969   0.33180
   6        3S         -0.20439   1.60410  -0.00008  -0.96304  -0.48855
   7        3PX        -0.40256  -0.10310   0.16926  -0.95550  -0.01907
   8        3PY         0.13941  -0.47229   0.58107  -0.13703   0.60047
   9        3PZ        -0.01649   0.37394   0.78061   0.30913  -0.44087
  10        4XX        -0.00027  -0.03070   0.00296   0.02597  -0.12547
  11        4YY        -0.00265  -0.02677  -0.00359   0.01236   0.02463
  12        4ZZ         0.00281  -0.03147   0.00063   0.01438   0.02306
  13        4XY         0.01166   0.00018   0.00527   0.01771   0.00518
  14        4XZ        -0.00796  -0.00203   0.00796  -0.01878   0.03654
  15        4YZ         0.00197  -0.00989  -0.00251  -0.01146   0.00837
  16 2   H  1S          0.00300  -0.07700  -0.10138  -0.01318   0.22011
  17        2S          0.09421  -1.15570  -1.38771  -0.28197  -0.03912
  18        3PX        -0.01260  -0.00404   0.00107  -0.00904   0.03503
  19        3PY         0.00315  -0.00160   0.00686  -0.00364   0.00024
  20        3PZ         0.00055  -0.01078  -0.00566   0.00330  -0.03529
  21 3   H  1S         -0.00515   0.00459   0.00000   0.26798  -0.71184
  22        2S          0.01147  -0.25305  -0.00006   2.77321   1.11638
  23        3PX         0.02326   0.00322   0.00107   0.00944  -0.02728
  24        3PY        -0.00123  -0.00312   0.00368   0.00149   0.03003
  25        3PZ        -0.00413   0.00162   0.00493  -0.00314  -0.01626
  26 4   H  1S          0.00298  -0.07702   0.10140  -0.01301   0.22201
  27        2S          0.09419  -1.15554   1.38787  -0.28181  -0.03951
  28        3PX        -0.01264  -0.00056  -0.00115  -0.00869   0.04248
  29        3PY         0.00300   0.01034  -0.00716  -0.00237   0.02582
  30        3PZ         0.00034   0.00527   0.00526   0.00501  -0.00082
  31 5   H  1S          0.24980   0.06810  -0.00001   0.03789  -0.37519
  32        2S          0.65337   0.25377   0.00002  -1.73744   0.03020
  33        3PX        -0.00639  -0.00197  -0.00016  -0.01019   0.07304
  34        3PY         0.00365   0.00106  -0.00057   0.01476  -0.00179
  35        3PZ        -0.00133  -0.00036  -0.00076  -0.00875  -0.01446
                          11        12        13        14        15
                           V         V         V         V         V
     Eigenvalues --     0.74667   0.80649   0.87895   0.95539   0.98279
   1 1   N  1S         -0.00003   0.00885   0.03062  -0.00001   0.02087
   2        2S          0.00017   0.05388  -0.24515   0.00011  -0.35970
   3        2PX        -0.06095  -0.72775   0.25743   0.15124   0.54876
   4        2PY        -0.20833   0.43188  -0.17906   0.51974   0.43571
   5        2PZ        -0.28180  -0.16356   0.07763   0.69842  -0.44290
   6        3S          0.00059  -0.03425   0.35172  -0.00021   0.60985
   7        3PX         0.18381   0.99196   0.04002  -0.26017  -1.25110
   8        3PY         0.62984  -0.33853   0.43307  -0.89382  -0.78234
   9        3PZ         0.84858   0.03661  -0.33116  -1.20107   0.85262
  10        4XX         0.01682  -0.03472  -0.09545   0.01524  -0.14357
  11        4YY         0.11397   0.08156  -0.00411   0.16384   0.02534
  12        4ZZ        -0.13054   0.10942   0.04286  -0.17907   0.06025
  13        4XY         0.05216   0.03293   0.04814   0.05767   0.06430
  14        4XZ         0.02796   0.01971   0.01083   0.01807   0.01004
  15        4YZ         0.03227   0.04467   0.07127   0.05013   0.03951
  16 2   H  1S         -0.65994   0.31217   0.49320  -0.41169   0.31767
  17        2S          0.14786  -0.21135  -0.15104   1.37540  -1.08270
  18        3PX         0.01081   0.00904   0.00140   0.00587   0.01099
  19        3PY         0.02850   0.02552   0.03813   0.02203   0.00927
  20        3PZ         0.00477   0.04728   0.04095  -0.14176   0.11000
  21 3   H  1S          0.00080  -0.26915   0.16311   0.00005  -0.33536
  22        2S         -0.00155   0.06570  -0.46039  -0.00019   1.96137
  23        3PX         0.01108   0.09119   0.08429   0.00244  -0.10112
  24        3PY         0.03794   0.01019  -0.01374   0.00843   0.04794
  25        3PZ         0.05103  -0.02734  -0.00812   0.01132  -0.01369
  26 4   H  1S          0.65949   0.31189   0.49355   0.41139   0.31741
  27        2S         -0.14810  -0.21130  -0.15161  -1.37497  -1.08305
  28        3PX        -0.00324  -0.00943  -0.01746  -0.03946  -0.02136
  29        3PY        -0.00229  -0.03792  -0.02668  -0.13736  -0.10167
  30        3PZ         0.03059  -0.03798  -0.04602  -0.01322  -0.03905
  31 5   H  1S          0.00043   0.08795   0.87593  -0.00014  -0.28182
  32        2S          0.00027  -0.26221  -0.54215   0.00016  -0.38297
  33        3PX         0.00614  -0.00487   0.00237  -0.00188   0.03538
  34        3PY         0.02123  -0.00747   0.01458  -0.00636   0.01213
  35        3PZ         0.02857   0.00660  -0.01138  -0.00856  -0.01666
                          16        17        18        19        20
                           V         V         V         V         V
     Eigenvalues --     1.04840   1.23359   1.47923   1.49717   1.82839
   1 1   N  1S         -0.03011  -0.08309  -0.00002   0.00160  -0.04338
   2        2S          0.68094  -1.40539  -0.00019   0.12865  -0.62788
   3        2PX         0.24054  -0.16543   0.00381   0.03990  -0.11974
   4        2PY         0.09307   0.05995   0.01315  -0.00987  -0.00132
   5        2PZ        -0.12132  -0.00881   0.01781  -0.00130   0.02685
   6        3S         -1.55791   3.72100   0.00064  -0.35176   1.62662
   7        3PX        -0.52212   0.59085  -0.03211  -0.32877   0.48958
   8        3PY        -0.23930  -0.44192  -0.11042  -0.10668  -0.35879
   9        3PZ         0.29102   0.20118  -0.14822   0.15083   0.16112
  10        4XX        -0.00688  -0.28511   0.18586   0.13853   0.06172
  11        4YY         0.13929  -0.18654  -0.20832  -0.13870  -0.34158
  12        4ZZ         0.08302  -0.31879   0.02235   0.01994  -0.00268
  13        4XY        -0.04797  -0.19097   0.33304  -0.26491   0.49141
  14        4XZ         0.04971   0.12013   0.49812   0.26466  -0.35180
  15        4YZ        -0.06727  -0.11832  -0.15139   0.53073   0.28718
  16 2   H  1S         -0.34110  -0.30623   0.05474  -0.04709  -0.32321
  17        2S          0.22237  -0.64456   0.04086  -0.03878  -0.22201
  18        3PX         0.03291   0.06670   0.25515   0.10917  -0.16661
  19        3PY        -0.03691  -0.06982  -0.10427   0.27058   0.13782
  20        3PZ        -0.04206   0.00410   0.00157  -0.01307  -0.03462
  21 3   H  1S         -0.77794  -0.30040   0.00012  -0.04510  -0.37310
  22        2S          2.19937  -1.07527  -0.00048   0.59088  -0.33070
  23        3PX         0.00568   0.08291   0.05470   0.00020  -0.11720
  24        3PY        -0.04571  -0.14228   0.18737  -0.20938   0.04761
  25        3PZ         0.03274   0.08778   0.25232   0.15538  -0.01038
  26 4   H  1S         -0.34124  -0.30603  -0.05502  -0.04698  -0.32320
  27        2S          0.22254  -0.64456  -0.04095  -0.03869  -0.22197
  28        3PX         0.04975   0.07582  -0.26055   0.05230  -0.17557
  29        3PY         0.02111  -0.03879   0.08510   0.07328   0.10826
  30        3PZ         0.03588   0.04588  -0.02803  -0.27784  -0.07427
  31 5   H  1S          0.72633   0.19212  -0.00000  -0.09354   0.26405
  32        2S         -1.46407   0.15761   0.00021  -0.18981  -0.10709
  33        3PX         0.06947  -0.02705   0.01881  -0.06009   0.13937
  34        3PY        -0.02125  -0.08703   0.06439  -0.04363  -0.22121
  35        3PZ         0.00074   0.07052   0.08676   0.04543   0.13369
                          21        22        23        24        25
                           V         V         V         V         V
     Eigenvalues --     1.93498   2.03191   2.13402   2.27385   2.35791
   1 1   N  1S         -0.00002  -0.03056  -0.05374   0.00001  -0.00001
   2        2S         -0.00045  -0.49906  -0.20600  -0.00008  -0.00024
   3        2PX         0.00985  -0.06499   0.18139   0.00779  -0.04026
   4        2PY         0.03400   0.04828   0.04453   0.02692  -0.13811
   5        2PZ         0.04577  -0.02181  -0.07247   0.03619  -0.18553
   6        3S          0.00113   1.34400   1.01174   0.00007   0.00058
   7        3PX        -0.03116   0.25449   0.04742  -0.07635   0.07511
   8        3PY        -0.10874  -0.36140  -0.23183  -0.26254   0.25663
   9        3PZ        -0.14601   0.21374   0.16230  -0.35277   0.34474
  10        4XX        -0.05349   0.01425  -0.67869  -0.00334  -0.08263
  11        4YY        -0.03771  -0.10420   0.12741   0.00639  -0.55427
  12        4ZZ         0.09109   0.00018   0.27771  -0.00298   0.63694
  13        4XY        -0.11175  -0.00293   0.31879  -0.00592  -0.25704
  14        4XZ        -0.13107   0.03507   0.02682  -0.00986  -0.14059
  15        4YZ         0.01002   0.21535   0.14456   0.00375  -0.15624
  16 2   H  1S          0.00156  -0.30741  -0.39041   0.15136  -0.49312
  17        2S          0.05861  -0.12739  -0.03413   0.08160   0.15298
  18        3PX        -0.27548   0.19060  -0.07422   0.22128   0.18767
  19        3PY        -0.07424   0.03672   0.05268   0.64841  -0.01799
  20        3PZ        -0.01034  -0.04687  -0.15079   0.07198  -0.33083
  21 3   H  1S         -0.00004   0.03009   0.08930  -0.00009  -0.00011
  22        2S         -0.00067  -0.70838  -0.69560  -0.00001  -0.00057
  23        3PX         0.08871   0.09191   0.29091  -0.00827  -0.03657
  24        3PY         0.30425   0.38307  -0.01692  -0.02842  -0.12597
  25        3PZ         0.40913  -0.30467  -0.05052  -0.03821  -0.16900
  26 4   H  1S         -0.00204  -0.30749  -0.39046  -0.15132   0.49300
  27        2S         -0.05868  -0.12743  -0.03415  -0.08160  -0.15298
  28        3PX         0.24127   0.18503  -0.03968  -0.05805  -0.27011
  29        3PY        -0.04212   0.01646   0.17140  -0.08821  -0.26419
  30        3PZ        -0.14621  -0.07425   0.00894   0.68074  -0.04838
  31 5   H  1S          0.00024   0.13871  -0.22766   0.00003  -0.00008
  32        2S          0.00003   0.13248   0.45827  -0.00006   0.00028
  33        3PX         0.11320   0.32936  -0.41888   0.06268   0.02803
  34        3PY         0.38684   0.45801   0.12053   0.21436   0.09606
  35        3PZ         0.52081  -0.41214   0.00129   0.28801   0.12854
                          26        27        28        29        30
                           V         V         V         V         V
     Eigenvalues --     2.44587   2.48801   2.73869   2.94256   2.95442
   1 1   N  1S         -0.00002  -0.00502  -0.05083  -0.04064   0.00023
   2        2S         -0.00031  -0.16216   0.08243  -0.14215   0.00050
   3        2PX         0.01283  -0.03336   0.03047   0.07430  -0.01718
   4        2PY         0.04424  -0.04173  -0.07832  -0.08337  -0.05706
   5        2PZ         0.05960   0.03829   0.05158   0.04526  -0.07754
   6        3S          0.00088   0.41334   0.61550   0.93522  -0.00471
   7        3PX         0.02508   0.57198   0.11589   0.29099   0.04641
   8        3PY         0.08340   0.05835   0.12871  -0.39428   0.16516
   9        3PZ         0.11178  -0.16768  -0.12064   0.23218   0.21808
  10        4XX        -0.08179   0.14929   0.47190   0.14440   0.23610
  11        4YY         0.35103  -0.01525  -0.42563   0.09816  -0.11062
  12        4ZZ        -0.26914  -0.06767  -0.24737  -0.26828  -0.12521
  13        4XY        -0.10386  -0.04809   0.37168  -0.16351   0.45129
  14        4XZ        -0.25284  -0.03409  -0.48029  -0.08655   0.61590
  15        4YZ         0.15676  -0.09055  -0.01145  -0.65852  -0.13616
  16 2   H  1S          0.11237   0.03259   0.06204  -0.10604   0.00297
  17        2S         -0.15305  -0.00033  -0.08136  -0.21263  -0.07650
  18        3PX         0.38128  -0.44786   0.45177  -0.06349  -0.46905
  19        3PY        -0.34090   0.08929  -0.08059   0.68065   0.02539
  20        3PZ         0.10075   0.07214   0.14659   0.12619  -0.09155
  21 3   H  1S         -0.00066  -0.36263  -0.51421  -0.29107   0.00132
  22        2S         -0.00068  -0.35490  -0.50233  -0.39397   0.00194
  23        3PX        -0.07309   0.04766   0.18089   0.19337  -0.12773
  24        3PY        -0.25175  -0.40442  -0.14069   0.33190  -0.43556
  25        3PZ        -0.33752   0.29141   0.06543  -0.29353  -0.58253
  26 4   H  1S         -0.11232   0.03251   0.06216  -0.10605  -0.00193
  27        2S          0.15297  -0.00048  -0.08134  -0.21195   0.07875
  28        3PX        -0.40106  -0.45794   0.40264  -0.22676   0.42331
  29        3PY         0.27548   0.05029  -0.25253   0.10304  -0.18833
  30        3PZ        -0.18865   0.02060  -0.08410  -0.64841  -0.11893
  31 5   H  1S         -0.00011  -0.02583  -0.01599   0.04510  -0.00020
  32        2S          0.00034   0.13729   0.37292   0.14582  -0.00075
  33        3PX         0.09200   0.02916  -0.49205  -0.21664   0.06381
  34        3PY         0.31616   0.53234   0.24241  -0.04818   0.21530
  35        3PZ         0.42357  -0.40307  -0.07338   0.08530   0.28897
                          31        32        33        34        35
                           V         V         V         V         V
     Eigenvalues --     3.05358   3.36730   3.51603   3.85111   4.16844
   1 1   N  1S         -0.09141  -0.16783  -0.00002  -0.30112  -0.32191
   2        2S          0.03805   0.68295  -0.00002   0.62230   0.65739
   3        2PX         0.06275  -0.13710   0.13805   0.23273  -0.28115
   4        2PY        -0.15889  -0.34994   0.47393   0.28511   0.17324
   5        2PZ         0.10466   0.29014   0.63677  -0.26269  -0.06800
   6        3S          1.37599   1.34469   0.00025   1.85399   2.24285
   7        3PX         0.72750  -0.43560   0.17084   0.56656   0.08665
   8        3PY        -0.05131  -0.43636   0.58618   0.08200  -0.17189
   9        3PZ        -0.11967   0.41923   0.78759  -0.18372   0.10915
  10        4XX         0.21627  -1.04688  -0.06276  -0.33097  -1.49379
  11        4YY        -0.32607  -0.01349  -1.03622  -1.33801  -1.07839
  12        4ZZ        -0.15552   0.13213   1.09892  -1.39524  -1.17784
  13        4XY        -0.27029   0.35405  -0.29872  -0.09913  -0.14140
  14        4XZ         0.20310   0.05525  -0.02972  -0.22606   0.18341
  15        4YZ         0.53342   0.12875  -0.33151  -0.14356  -0.05693
  16 2   H  1S         -0.13904  -0.55665  -0.89502   0.46139   0.19955
  17        2S         -0.14883  -0.53549  -0.56289  -0.11699  -0.33066
  18        3PX        -0.38560   0.10296  -0.04545  -0.04594  -0.03569
  19        3PY        -0.32538   0.07466  -0.03371   0.00283   0.03790
  20        3PZ         0.32733   0.81445   1.03261  -0.50438  -0.29010
  21 3   H  1S         -0.46454   0.39452  -0.00004   0.00544   0.04566
  22        2S         -0.98652   0.38021  -0.00019  -0.77905  -0.62429
  23        3PX         0.30340  -0.02780  -0.02346   0.91939  -1.14313
  24        3PY         0.43393  -0.17433  -0.08091  -0.19114   0.26482
  25        3PZ        -0.38782   0.13523  -0.10880  -0.05738   0.05113
  26 4   H  1S         -0.13896  -0.55675   0.89497   0.46132   0.19970
  27        2S         -0.14909  -0.53543   0.56285  -0.11698  -0.33074
  28        3PX        -0.38660  -0.13850   0.31556   0.09287   0.03718
  29        3PY        -0.32673  -0.75516   0.96133   0.47896   0.28874
  30        3PZ         0.32550  -0.30036   0.21371   0.13544   0.04680
  31 5   H  1S          0.06939  -0.12025  -0.00004  -0.27935   0.39164
  32        2S          0.38351  -0.18660   0.00008   0.14926   0.26937
  33        3PX        -0.34379   0.36179   0.00172   0.58271  -0.61669
  34        3PY        -0.04703  -0.06139   0.00573  -0.19881   0.28911
  35        3PZ         0.10946  -0.03282   0.00775   0.02130  -0.08093
     Alpha Density Matrix:
                           1         2         3         4         5
   1 1   N  1S          1.03370
   2        2S         -0.06838   0.21969
   3        2PX        -0.00038   0.00069   0.35113
   4        2PY        -0.01453   0.03394  -0.04220   0.28556
   5        2PZ         0.01090  -0.02541   0.00748  -0.02417   0.25717
   6        3S         -0.11651   0.25791   0.02817   0.07946  -0.06526
   7        3PX         0.00220  -0.00605   0.25250  -0.06693   0.02106
   8        3PY        -0.01445   0.03552  -0.05631   0.18759  -0.03817
   9        3PZ         0.01028  -0.02512   0.01317  -0.03587   0.14376
  10        4XX        -0.00787   0.00024   0.00887   0.00622  -0.00591
  11        4YY        -0.00421  -0.00782  -0.00396  -0.01784  -0.00442
  12        4ZZ        -0.00521  -0.00544  -0.00376   0.00531   0.01478
  13        4XY        -0.00045   0.00112  -0.01240   0.00366  -0.00188
  14        4XZ         0.00081  -0.00179   0.00587  -0.00266   0.00466
  15        4YZ        -0.00141   0.00338  -0.00221   0.00502  -0.00995
  16 2   H  1S         -0.02251   0.04600  -0.00358   0.00449   0.14760
  17        2S          0.00470  -0.01205  -0.01901   0.00238   0.10226
  18        3PX         0.00011  -0.00027   0.00907  -0.00106   0.00038
  19        3PY        -0.00057   0.00143  -0.00122   0.00804  -0.00168
  20        3PZ         0.00426  -0.00830  -0.00001  -0.00048  -0.00440
  21 3   H  1S         -0.01506   0.03203   0.10475   0.00993  -0.03009
  22        2S         -0.00245   0.00502   0.03254   0.04979  -0.04410
  23        3PX         0.00416  -0.00902  -0.01191  -0.00079   0.00433
  24        3PY        -0.00064   0.00152  -0.00148   0.00647  -0.00051
  25        3PZ        -0.00043   0.00082   0.00485  -0.00066   0.00480
  26 4   H  1S         -0.02251   0.04600  -0.04423  -0.13514  -0.04000
  27        2S          0.00469  -0.01205  -0.04605  -0.09051  -0.02256
  28        3PX        -0.00094   0.00171   0.00826  -0.00430  -0.00054
  29        3PY        -0.00416   0.00821  -0.00364  -0.00185  -0.00319
  30        3PZ        -0.00056   0.00082  -0.00051  -0.00429   0.00629
  31 5   H  1S          0.01402  -0.03209  -0.06309   0.00391   0.01077
  32        2S          0.02696  -0.06056  -0.16121  -0.00971   0.04217
  33        3PX         0.00014  -0.00013  -0.00309   0.00046   0.00050
  34        3PY        -0.00019   0.00036   0.00015   0.00121  -0.00034
  35        3PZ         0.00011  -0.00024   0.00073  -0.00040   0.00094
                           6         7         8         9        10
   6        3S          0.33042
   7        3PX         0.01273   0.19101
   8        3PY         0.06731  -0.06524   0.12815
   9        3PZ        -0.05286   0.02010  -0.03680   0.08275
  10        4XX         0.00155   0.00431   0.00370  -0.00337   0.00077
  11        4YY        -0.01080  -0.00056  -0.01100  -0.00093  -0.00040
  12        4ZZ        -0.00716  -0.00239   0.00217   0.00783  -0.00026
  13        4XY         0.00107  -0.00914   0.00355  -0.00158  -0.00026
  14        4XZ        -0.00215   0.00487  -0.00264   0.00288  -0.00003
  15        4YZ         0.00572  -0.00266   0.00434  -0.00599   0.00026
  16 2   H  1S          0.03376   0.00404  -0.00632   0.07861  -0.00343
  17        2S         -0.03050  -0.00964  -0.00589   0.05623  -0.00245
  18        3PX         0.00038   0.00653  -0.00147   0.00045   0.00023
  19        3PY         0.00290  -0.00196   0.00539  -0.00158   0.00019
  20        3PZ        -0.00896  -0.00011  -0.00040  -0.00205   0.00011
  21 3   H  1S          0.02706   0.05688   0.00185  -0.01370   0.00670
  22        2S          0.00674   0.00603   0.03263  -0.02558   0.00488
  23        3PX        -0.01412  -0.00911  -0.00036   0.00282  -0.00019
  24        3PY         0.00351  -0.00139   0.00433  -0.00094   0.00002
  25        3PZ         0.00045   0.00359  -0.00116   0.00276   0.00004
  26 4   H  1S          0.03377  -0.01619  -0.07586  -0.01481  -0.00393
  27        2S         -0.03048  -0.02310  -0.05215  -0.00593  -0.00278
  28        3PX         0.00220   0.00631  -0.00326   0.00009   0.00014
  29        3PY         0.00915  -0.00254  -0.00015  -0.00201  -0.00011
  30        3PZ        -0.00057   0.00049  -0.00313   0.00371  -0.00026
  31 5   H  1S         -0.08838  -0.06884   0.00516   0.01108   0.00339
  32        2S         -0.15183  -0.14281   0.00061   0.03050   0.00144
  33        3PX         0.00093  -0.00144   0.00049   0.00003  -0.00025
  34        3PY         0.00006  -0.00039   0.00080  -0.00021   0.00011
  35        3PZ        -0.00025   0.00069  -0.00041   0.00055  -0.00002
                          11        12        13        14        15
  11        4YY         0.00160
  12        4ZZ        -0.00044   0.00119
  13        4XY         0.00001   0.00007   0.00047
  14        4XZ         0.00000   0.00020  -0.00025   0.00020
  15        4YZ        -0.00012  -0.00050   0.00018  -0.00024   0.00047
  16 2   H  1S         -0.00523   0.00775  -0.00046   0.00213  -0.00488
  17        2S         -0.00210   0.00637   0.00005   0.00141  -0.00374
  18        3PX        -0.00010  -0.00008  -0.00032   0.00016  -0.00007
  19        3PY        -0.00049   0.00008   0.00011  -0.00009   0.00018
  20        3PZ         0.00037  -0.00010  -0.00001  -0.00002   0.00008
  21 3   H  1S         -0.00320  -0.00368  -0.00370   0.00034   0.00100
  22        2S         -0.00312  -0.00207  -0.00079  -0.00085   0.00210
  23        3PX         0.00037   0.00048   0.00031  -0.00011  -0.00021
  24        3PY        -0.00040   0.00013   0.00012  -0.00005   0.00012
  25        3PZ        -0.00020   0.00020  -0.00020   0.00015  -0.00020
  26 4   H  1S          0.00923  -0.00620   0.00097  -0.00095   0.00033
  27        2S          0.00751  -0.00292   0.00101  -0.00064  -0.00027
  28        3PX         0.00009  -0.00025  -0.00030   0.00013  -0.00005
  29        3PY         0.00004  -0.00037   0.00016  -0.00015   0.00018
  30        3PZ         0.00010   0.00025  -0.00004   0.00011  -0.00027
  31 5   H  1S          0.00059   0.00093   0.00123  -0.00171  -0.00057
  32        2S          0.00294   0.00353   0.00398  -0.00287  -0.00183
  33        3PX         0.00005   0.00010   0.00013  -0.00001   0.00000
  34        3PY        -0.00009  -0.00001  -0.00000  -0.00003   0.00003
  35        3PZ        -0.00000   0.00005  -0.00003   0.00003  -0.00004
                          16        17        18        19        20
  16 2   H  1S          0.10217
  17        2S          0.05895   0.04268
  18        3PX        -0.00006  -0.00041   0.00023
  19        3PY        -0.00035  -0.00034  -0.00003   0.00023
[...]
 Atom     3 has atomic number  1 and mass   1.00783
 Atom     4 has atomic number  1 and mass   1.00783
 Atom     5 has atomic number  1 and mass   1.00783
 Molecular mass:    18.03437 amu.
 Principal axes and moments of inertia in atomic units:
                           1         2         3
     Eigenvalues --     7.24176  23.22378  25.34365
           X            0.98843   0.14044  -0.05726
           Y           -0.03931   0.60187   0.79763
           Z           -0.14648   0.78615  -0.60043
 This molecule is an asymmetric top.
 Rotational symmetry number  1.
 Rotational temperatures (Kelvin)     11.96032     3.72953     3.41757
 Rotational constants (GHZ):         249.21298    77.71093    71.21078
    1 imaginary frequencies ignored.
 Zero-point vibrational energy      86061.2 (Joules/Mol)
                                   20.56912 (Kcal/Mol)
 Vibrational temperatures:   1001.36  1027.78  1619.80  1868.43  2284.30
          (Kelvin)           2842.58  4952.81  5104.47
 
 Zero-point correction=                           0.032779 (Hartree/Particle)
 Thermal correction to Energy=                    0.035895
 Thermal correction to Enthalpy=                  0.036845
 Thermal correction to Gibbs Free Energy=         0.011577
 Sum of electronic and zero-point Energies=            -56.988324
 Sum of electronic and thermal Energies=               -56.985208
 Sum of electronic and thermal Enthalpies=             -56.984258
 Sum of electronic and thermal Free Energies=          -57.009526
 
                     E (Thermal)             CV                S
                      KCal/Mol        Cal/Mol-Kelvin    Cal/Mol-Kelvin
 Total                   22.524              8.105             52.853
 Electronic               0.000              0.000              1.377
 Translational            0.894              2.981             34.643
 Rotational               0.894              2.981             16.125
 Vibrational             20.736              2.143              0.707
                       Q            Log10(Q)             Ln(Q)
 Total Bot       0.510404D-05         -5.292086        -12.185478
 Total V=0       0.492250D+10          9.692186         22.317083
 Vib (Bot)       0.111908D-14        -14.951138        -34.426267
 Vib (V=0)       0.107928D+01          0.033134          0.076294
 Electronic      0.200000D+01          0.301030          0.693147
 Translational   0.305719D+07          6.485323         14.933008
 Rotational      0.745932D+03          2.872699          6.614634
 
                                                          nh3+h to nh2+h2 ts
                                                             IR Spectrum
 
     3   3                                                    1             1         1     1                                        
     5   4                                                    9             5         2     1              76                        
     4   4                                                    7             8         9     2              19                        
     8   2                                                    6             8         9     6              46                        
 
     X   X                                                    X             X         X     X              XX                        
                                                                            X               X              X                         
                                                                                            X              X                         
                                                                                            X              X                         
                                                                                            X                                        
                                                                                            X                                        
                                                                                            X                                        
                                                                                            X                                        
                                                                                            X                                        
                                                                                            X                                        
                                                                                            X                                        
                                                                                            X                                        
                                                                                            X                                        
                                                                                            X                                        
                                                                                            X                                        
                                                                                            X                                        
                                                                                            X                                        
                                                                                            X                                        
                                                                                            X                                        
                                                                                            X                                        
 
 -------------------------------------------------------------------
 Center     Atomic                   Forces (Hartrees/Bohr)
 Number     Number              X              Y              Z
 -------------------------------------------------------------------
      1        7           0.000021171   -0.000000758   -0.000011959
      2        1          -0.000025429    0.000002619    0.000000354
      3        1           0.000017901   -0.000009771    0.000008795
      4        1          -0.000007560   -0.000001333    0.000012912
      5        1          -0.000006084    0.000009244   -0.000010102
 -------------------------------------------------------------------
 Cartesian Forces:  Max     0.000025429 RMS     0.000012080
 -----------------------------------------------------------------------------------------------
                       Internal Coordinate Forces (Hartree/Bohr or radian)
  Cent   Atom   N1       Length/X         N2         Alpha/Y        N3         Beta/Z          J
 -----------------------------------------------------------------------------------------------
      1  N 
      2  H        1   0.000000(     1)
      3  H        1   0.000012(     2)      2   0.000023(     6)
      4  H        1  -0.000000(     3)      3   0.000019(     7)      2   0.000019(    10)     0
         X        3  -0.000000(     4)      1  -0.000016(     8)      4   0.000002(    11)     0
      5  H        3  -0.000009(     5)      5  -0.000015(     9)      1   0.000012(    12)     0
 -----------------------------------------------------------------------------------------------
 Internal  Forces:  Max     0.000022615 RMS     0.000013290
 Force constants in Cartesian coordinates: 
                1             2             3             4             5 
      1  0.886414D-01
      2  0.926774D-01  0.431500D+00
      3  0.154468D-01  0.902041D-01  0.501540D+00
      4 -0.298279D-01 -0.103285D-01 -0.847535D-02  0.292545D-01
      5 -0.134529D-01 -0.357580D-01  0.283120D-01  0.106936D-01  0.411551D-01
      6  0.482175D-02 -0.242618D-01 -0.420977D+00 -0.636735D-03  0.143509D-01
      7  0.858349D-01 -0.189083D-01 -0.666940D-02 -0.239602D-02  0.311425D-02
      8 -0.172626D-01 -0.182226D-01 -0.727597D-02  0.184232D-03 -0.771025D-03
      9 -0.779332D-02 -0.700460D-02 -0.253419D-01  0.195896D-01  0.344468D-02
     10 -0.444663D-01 -0.704548D-01 -0.140073D-01  0.149762D-02  0.309454D-03
     11 -0.954185D-01 -0.379190D+00 -0.108677D+00  0.408179D-03 -0.456718D-02
     12 -0.578250D-02 -0.611315D-01 -0.609080D-01 -0.116254D-01 -0.441485D-01
     13 -0.100182D+00  0.701416D-02  0.137053D-01  0.147186D-02 -0.664346D-03
     14  0.334566D-01  0.167096D-02 -0.256345D-02 -0.957503D-03 -0.589249D-04
     15 -0.669271D-02  0.219378D-02  0.568684D-02  0.114793D-02 -0.195905D-02
                6             7             8             9            10 
      6  0.436811D+00
      7 -0.639936D-02 -0.601222D-01
      8  0.148331D-02  0.776121D-02  0.440923D-01
      9 -0.418164D-02  0.129567D-01 -0.118977D-02  0.438927D-01
     10  0.643564D-03 -0.561041D-02 -0.178858D-01 -0.416577D-02  0.475411D-01
     11  0.886873D-02  0.698682D-02 -0.318766D-02 -0.437513D-03  0.895373D-01
     12 -0.129682D-01  0.533361D-03  0.649653D-02  0.143804D-02  0.172842D-01
     13  0.157078D-02 -0.177063D-01  0.272030D-01 -0.205872D-01  0.103792D-02
     14 -0.441166D-03  0.104601D-02 -0.219109D-01  0.518720D-02 -0.150605D-02
     15  0.131529D-02 -0.421286D-03  0.485893D-03 -0.158072D-01  0.245321D-03
               11            12            13            14            15 
     11  0.384597D+00
     12  0.998869D-01  0.730774D-01
     13 -0.151381D-02 -0.409615D-03  0.115379D+00
     14  0.234787D-02 -0.110342D-02 -0.320390D-01  0.179510D-01
     15  0.358543D-03 -0.639165D-03  0.572074D-02 -0.107917D-02  0.944419D-02
 Force constants in internal coordinates: 
                1             2             3             4             5 
      1  0.436811D+00
      2 -0.424578D-02  0.207138D-01
      3 -0.548978D-02 -0.426212D-02  0.434627D+00
      4  0.000000D+00  0.000000D+00  0.000000D+00  0.000000D+00
      5  0.171551D-02  0.103772D+00  0.171714D-02  0.000000D+00  0.125162D+00
      6  0.118015D-02  0.899857D-02 -0.391189D-02  0.000000D+00 -0.359502D-02
      7 -0.385332D-02  0.886159D-02  0.101178D-02  0.000000D+00 -0.347151D-02
      8  0.193628D-02 -0.119803D-02 -0.433399D-03  0.000000D+00 -0.369060D-02
      9  0.204342D-02 -0.105522D-02 -0.759723D-03  0.000000D+00 -0.314987D-02
     10 -0.272226D-01 -0.415027D-02 -0.280068D-01  0.000000D+00  0.145086D-02
     11 -0.645771D-03  0.475677D-04  0.653499D-03  0.000000D+00 -0.231465D-04
     12 -0.415416D-04  0.120199D-02 -0.169155D-02  0.000000D+00  0.426985D-02
                6             7             8             9            10 
      6  0.110893D+00
      7  0.151739D-01  0.110875D+00
      8 -0.280635D-02 -0.894610D-03  0.239608D-01
      9 -0.273700D-02 -0.363605D-03  0.250217D-01  0.267224D-01
     10  0.396186D-01  0.404905D-01  0.577458D-02  0.612037D-02  0.149659D+00
     11  0.557812D-03 -0.678845D-03 -0.753400D-02 -0.887074D-02 -0.197012D-02
     12  0.132388D-02  0.328486D-02 -0.200392D-02  0.127017D-02  0.239235D-04
               11            12 
     11  0.406116D-02
     12 -0.501319D-02  0.190821D-01
 Leave Link  716 at Sat Sep 14 12:16:11 2024, MaxMem=   268435456 cpu:         0.2
 (Enter /g100_work/pMI24_ChiCa/g09d1/g09d01/d01/build-node-6-2-59348/src/main/l103.exe)

 GradGradGradGradGradGradGradGradGradGradGradGradGradGradGradGradGradGrad
 Berny optimization.
 Search for a saddle point.
 Step number   1 out of a maximum of    2
 All quantities printed in internal units (Hartrees-Bohrs-Radians)
 Swapping is turned off.
 Second derivative matrix not updated -- analytic derivatives used.
 The second derivative matrix:
                          hn2       hn3      hnh3       hn4      hnh4
           hn2          0.43681
           hn3         -0.00425   0.02071
           hnh3         0.00118   0.00900   0.11089
           hn4         -0.00549  -0.00426  -0.00391   0.43463
           hnh4        -0.00385   0.00886   0.01517   0.00101   0.11088
           dih4        -0.02722  -0.00415   0.03962  -0.02801   0.04049
           xxh5         0.00000   0.00000   0.00000   0.00000  -0.00000
           xxhn5        0.00194  -0.00120  -0.00281  -0.00043  -0.00089
           dih5        -0.00065   0.00005   0.00056   0.00065  -0.00068
           hh6          0.00172   0.10377  -0.00360   0.00172  -0.00347
           hhxx6        0.00204  -0.00106  -0.00274  -0.00076  -0.00036
           dih6        -0.00004   0.00120   0.00132  -0.00169   0.00328
                         dih4      xxh5      xxhn5     dih5       hh6
           dih4         0.14966
           xxh5         0.00000   0.00000
           xxhn5        0.00577   0.00000   0.02396
           dih5        -0.00197  -0.00000  -0.00753   0.00406
           hh6          0.00145   0.00000  -0.00369  -0.00002   0.12516
           hhxx6        0.00612   0.00000   0.02502  -0.00887  -0.00315
           dih6         0.00002   0.00000  -0.00200  -0.00501   0.00427
                         hhxx6     dih6
           hhxx6        0.02672
           dih6         0.00127   0.01908
 ITU=  0
     Eigenvalues ---   -0.04492   0.01859   0.02630   0.08053   0.09572
     Eigenvalues ---    0.18916   0.19185   0.43583   0.441481000.00000
     Eigenvalues --- 1000.000001000.00000
 Eigenvectors required to have negative eigenvalues:
                          hn3       hh6      hnh3      hnh4      dih4
   1                    0.84592  -0.52062  -0.06833  -0.06742   0.05393
                         dih6      hhxx6      hn4       hn2      xxhn5
   1                    0.02440  -0.01864   0.01231   0.01221  -0.00000
 Angle between quadratic step and forces=  61.75 degrees.
 Linear search not attempted -- option 19 set.
 Variable       Old X    -DE/DX   Delta X   Delta X   Delta X     New X
                                 (Linear)    (Quad)   (Total)
   hn2        1.93933   0.00000   0.00000   0.00001   0.00001   1.93934
   hn3        2.44657   0.00001   0.00000  -0.00029  -0.00029   2.44628
   hnh3       1.74852   0.00002   0.00000   0.00017   0.00017   1.74869
   hn4        1.93935  -0.00000   0.00000   0.00000   0.00000   1.93935
   hnh4       1.74851   0.00002   0.00000   0.00013   0.00013   1.74864
   dih4       4.43408   0.00002   0.00000   0.00007   0.00007   4.43414
   xxh5       1.93036  -0.00000   0.00000   0.00000   0.00000   1.93036
  xxhn5       1.34255  -0.00002   0.00000   0.00000   0.00000   1.34255
   dih5       1.35027   0.00000   0.00000   0.00000   0.00000   1.35027
   hh6        1.69801  -0.00001   0.00000   0.00014   0.00014   1.69815
  hhxx6       2.04191  -0.00002   0.00000  -0.00059  -0.00059   2.04132
   dih6       2.80583   0.00001   0.00000   0.00060   0.00060   2.80642
         Item               Value     Threshold  Converged?
 Maximum Force            0.000023     0.000450     YES
 RMS     Force            0.000014     0.000300     YES
 Maximum Displacement     0.000597     0.001800     YES
 RMS     Displacement     0.000267     0.001200     YES
 Predicted change in Energy=-9.402274D-09
 Optimization completed.
    -- Stationary point found.
                       ----------------------------
                       !   Optimized Parameters   !
                       ! (Angstroms and Degrees)  !
 ----------------------                            ----------------------
 !      Name          Value   Derivative information (Atomic Units)     !
 ------------------------------------------------------------------------
 !       hn2         1.0263   -DE/DX =    0.0                           !
 !       hn3         1.2947   -DE/DX =    0.0                           !
 !      hnh3       100.1829   -DE/DX =    0.0                           !
 !       hn4         1.0263   -DE/DX =    0.0                           !
 !      hnh4       100.1822   -DE/DX =    0.0                           !
 !      dih4       254.054    -DE/DX =    0.0                           !
 !      xxh5         1.0215   -DE/DX =    0.0                           !
 !      xxhn5       76.9226   -DE/DX =    0.0                           !
 !      dih5        77.3649   -DE/DX =    0.0                           !
 !       hh6         0.8985   -DE/DX =    0.0                           !
 !      hhxx6      116.9929   -DE/DX =    0.0                           !
 !      dih6       160.762    -DE/DX =    0.0                           !
 ------------------------------------------------------------------------
 GradGradGradGradGradGradGradGradGradGradGradGradGradGradGradGradGradGrad

 Leave Link  103 at Sat Sep 14 12:16:11 2024, MaxMem=   268435456 cpu:         0.1
 (Enter /g100_work/pMI24_ChiCa/g09d1/g09d01/d01/build-node-6-2-59348/src/main/l9999.exe)
 1\1\GINC-R500N001\Freq\UwB97XD\6-31G(d,p)\H4N1(2)\ECABIATI\14-Sep-2024
 \1\\#P Geom=AllCheck Guess=TCheck SCRF=Check GenChk UwB97XD/6-31G(d,p)
  Freq\\nh3+h to nh2+h2 ts\\0,2\N\H,1,hn2\H,1,hn3,2,hnh3\H,1,hn4,3,hnh4
 ,2,dih4,0\X,3,xxh5,1,xxhn5,4,dih5,0\H,3,hh6,5,hhxx6,1,dih6,0\\hn2=1.02
 625019\hn3=1.29466898\hnh3=100.18292779\hn4=1.0262583\hnh4=100.1821689
 6\dih4=254.05401306\hh6=0.89854941\hhxx6=116.99285107\dih6=160.7619783
 9\xxh5=1.0215\xxhn5=76.9226\dih5=77.3649\\Version=EM64L-G09RevD.01\HF=
 -57.0211025\S2=0.758167\S2-1=0.\S2A=0.750022\RMSD=5.987e-10\RMSF=1.208
 e-05\ZeroPoint=0.032779\Thermal=0.0358945\Dipole=-0.0892795,-0.546934,
 0.4350157\DipoleDeriv=-0.3130802,0.1348357,-0.0847495,0.1337469,-0.241
 6549,0.0036555,-0.0840817,0.0028911,-0.193451,0.2827197,-0.0362418,-0.
 018463,-0.0545534,0.2238739,0.0817228,-0.0438203,0.0140663,-0.0340241,
 -0.3010866,-0.0399448,0.0995668,-0.0717339,0.142479,-0.0342199,0.12430
 35,-0.0397595,0.0892018,0.297596,-0.047136,0.0131144,-0.0423778,-0.036
 4095,-0.0604028,0.0488345,0.0052542,0.2116226,0.0338511,-0.0115131,-0.
 0094687,0.0349182,-0.0882884,0.0092444,-0.045236,0.0175479,-0.0733493\
 Polar=29.0206251,-1.9352511,9.4593011,-1.8395424,1.070157,9.919469\PG=
 C01 [X(H4N1)]\NImag=1\\0.08864141,0.09267741,0.43149998,0.01544678,0.0
 9020406,0.50153969,-0.02982792,-0.01032846,-0.00847535,0.02925445,-0.0
 1345291,-0.03575799,0.02831198,0.01069355,0.04115512,0.00482175,-0.024
 26177,-0.42097658,-0.00063674,0.01435090,0.43681116,0.08583495,-0.0189
 0828,-0.00666940,-0.00239602,0.00311425,-0.00639936,-0.06012222,-0.017
 26262,-0.01822264,-0.00727597,0.00018423,-0.00077103,0.00148331,0.0077
 6121,0.04409226,-0.00779332,-0.00700460,-0.02534193,0.01958957,0.00344
 468,-0.00418164,0.01295669,-0.00118977,0.04389268,-0.04446628,-0.07045
 483,-0.01400729,0.00149762,0.00030945,0.00064356,-0.00561041,-0.017885
 85,-0.00416577,0.04754114,-0.09541845,-0.37919030,-0.10867662,0.000408
 18,-0.00456718,0.00886873,0.00698682,-0.00318766,-0.00043751,0.0895372
 7,0.38459727,-0.00578250,-0.06113146,-0.06090802,-0.01162542,-0.044148
 51,-0.01296822,0.00053336,0.00649653,0.00143804,0.01728418,0.09988687,
 0.07307736,-0.10018217,0.00701416,0.01370527,0.00147186,-0.00066435,0.
 00157078,-0.01770630,0.02720303,-0.02058717,0.00103792,-0.00151381,-0.
 00040961,0.11537869,0.03345658,0.00167096,-0.00256345,-0.00095750,-0.0
 0005892,-0.00044117,0.00104601,-0.02191093,0.00518720,-0.00150605,0.00
 234787,-0.00110342,-0.03203903,0.01795103,-0.00669271,0.00219378,0.005
 68684,0.00114793,-0.00195905,0.00131529,-0.00042129,0.00048589,-0.0158
 0716,0.00024532,0.00035854,-0.00063916,0.00572074,-0.00107917,0.009444
 19\\-0.00002117,0.00000076,0.00001196,0.00002543,-0.00000262,-0.000000
 35,-0.00001790,0.00000977,-0.00000880,0.00000756,0.00000133,-0.0000129
 1,0.00000608,-0.00000924,0.00001010\\\@


 TERRY FORSTER, PORTLY ATLANTA BRAVES RELIEVER,
 ANNOUNCING THAT HE WAS GOING TO A FAT FARM:
 "A WAIST IS A TERRIBLE THING TO MIND."
 Job cpu time:       0 days  0 hours  0 minutes 38.3 seconds.
 File lengths (MBytes):  RWF=      5 Int=      0 D2E=      0 Chk=      1 Scr=      1
 Normal termination of Gaussian 09 at Sat Sep 14 12:16:11 2024.
