 Entering Gaussian System, Link 0=/g100_work/pMI24_ChiCa/g09d1/g09d01/d01/build-node-6-2-59348/src/main/g09
 Input=geom.com
 Output=geom.log
 Initial command:
 /g100_work/pMI24_ChiCa/g09d1/g09d01/d01/build-node-6-2-59348/src/main/l1.exe "/g100_scratch/userexternal/ecabiati/g16_14408155/Gau-56493.inp" -scrdir="/g100_scratch/userexternal/ecabiati/g16_14408155/"
 Entering Link 1 = /g100_work/pMI24_ChiCa/g09d1/g09d01/d01/build-node-6-2-59348/src/main/l1.exe PID=     56494.
  
 Copyright (c) 1988,1990,1992,1993,1995,1998,2003,2009,2013,
            Gaussian, Inc.  All Rights Reserved.
  
 This is part of the Gaussian(R) 09 program.  It is based on
 the Gaussian(R) 03 system (copyright 2003, Gaussian, Inc.),
 the Gaussian(R) 98 system (copyright 1998, Gaussian, Inc.),
 the Gaussian(R) 94 system (copyright 1995, Gaussian, Inc.),
 the Gaussian 92(TM) system (copyright 1992, Gaussian, Inc.),
 the Gaussian 90(TM) system (copyright 1990, Gaussian, Inc.),
 the Gaussian 88(TM) system (copyright 1988, Gaussian, Inc.),
 the Gaussian 86(TM) system (copyright 1986, Carnegie Mellon
 University), and the Gaussian 82(TM) system (copyright 1983,
 Carnegie Mellon University). Gaussian is a federally registered
 trademark of Gaussian, Inc.
  
 This software contains proprietary and confidential information,
 including trade secrets, belonging to Gaussian, Inc.
  
 This software is provided under written license and may be
 used, copied, transmitted, or stored only in accord with that
 written license.
  
 The following legend is applicable only to US Government
 contracts under FAR:
  
                    RESTRICTED RIGHTS LEGEND
  
 Use, reproduction and disclosure by the US Government is
 subject to restrictions as set forth in subparagraphs (a)
 and (c) of the Commercial Computer Software - Restricted
 Rights clause in FAR 52.227-19.
  
 Gaussian, Inc.
 340 Quinnipiac St., Bldg. 40, Wallingford CT 06492
  
  
 ---------------------------------------------------------------
 Warning -- This program may not be used in any manner that
 competes with the business of Gaussian, Inc. or will provide
 assistance to any competitor of Gaussian, Inc.  The licensee
 of this program is prohibited from giving any competitor of
 Gaussian, Inc. access to this program.  By using this program,
 the user acknowledges that Gaussian, Inc. is engaged in the
 business of creating and licensing software in the field of
 computational chemistry and represents and warrants to the
 licensee that it is not a competitor of Gaussian, Inc. and that
 it will not use this program in any manner prohibited above.
 ---------------------------------------------------------------
  

 Cite this work as:
 Gaussian 09, Revision D.01,
 M. J. Frisch, G. W. Trucks, H. B. Schlegel, G. E. Scuseria, 
 M. A. Robb, J. R. Cheeseman, G. Scalmani, V. Barone, B. Mennucci, 
 G. A. Petersson, H. Nakatsuji, M. Caricato, X. Li, H. P. Hratchian, 
 A. F. Izmaylov, J. Bloino, G. Zheng, J. L. Sonnenberg, M. Hada, 
 M. Ehara, K. Toyota, R. Fukuda, J. Hasegawa, M. Ishida, T. Nakajima, 
 Y. Honda, O. Kitao, H. Nakai, T. Vreven, J. A. Montgomery, Jr., 
 J. E. Peralta, F. Ogliaro, M. Bearpark, J. J. Heyd, E. Brothers, 
 K. N. Kudin, V. N. Staroverov, T. Keith, R. Kobayashi, J. Normand, 
 K. Raghavachari, A. Rendell, J. C. Burant, S. S. Iyengar, J. Tomasi, 
 M. Cossi, N. Rega, J. M. Millam, M. Klene, J. E. Knox, J. B. Cross, 
 V. Bakken, C. Adamo, J. Jaramillo, R. Gomperts, R. E. Stratmann, 
 O. Yazyev, A. J. Austin, R. Cammi, C. Pomelli, J. W. Ochterski, 
 R. L. Martin, K. Morokuma, V. G. Zakrzewski, G. A. Voth, 
 P. Salvador, J. J. Dannenberg, S. Dapprich, A. D. Daniels, 
 O. Farkas, J. B. Foresman, J. V. Ortiz, J. Cioslowski, 
 and D. J. Fox, Gaussian, Inc., Wallingford CT, 2013.
 
 ******************************************
 Gaussian 09:  EM64L-G09RevD.01 24-Apr-2013
                15-Sep-2024 
 ******************************************
 %nproc=24
 Will use up to   24 processors via shared memory.
 %mem=2Gb
 %chk=ts.chk
 ----------------------------------------------------------------------
 #p wb97xd/6-31g(d,p) opt=(Z-matrix,ts,calcfc) nosym freq temperature=3
 00 pop=full gfinput
 ----------------------------------------------------------------------
 1/5=1,10=4,14=-1,18=40,26=3,38=1,112=300000/1,3;
 2/12=2,15=1,17=6,18=5,29=3,40=1/2;
 3/5=1,6=6,7=101,11=2,16=1,24=10,25=1,30=1,71=2,74=-58,140=1/1,2,3;
 4//1;
 5/5=2,38=5/2;
 8/6=4,10=90,11=11/1;
 11/6=1,8=1,9=11,15=111,16=1,31=1/1,2,10;
 10/6=1,13=1,31=1/2;
 6/7=3,28=1/1;
 7/10=1,18=20,25=1,30=1/1,2,3,16;
 1/5=1,10=4,14=-1,18=40,26=3/3(2);
 2/15=1,29=3/2;
 99//99;
 2/15=1,29=3/2;
 3/5=1,6=6,7=101,11=2,16=1,25=1,30=1,71=1,74=-58/1,2,3;
 4/5=5,16=3,69=1/1;
 5/5=2,38=5/2;
 7/30=1/1,2,3,16;
 1/5=1,14=-1,18=40,26=3/3(-5);
 2/15=1,29=3/2;
 6/7=3,19=2,28=1/1;
 99/9=1/99;
 Leave Link    1 at Sun Sep 15 21:37:10 2024, MaxMem=   268435456 cpu:         0.2
 (Enter /g100_work/pMI24_ChiCa/g09d1/g09d01/d01/build-node-6-2-59348/src/main/l101.exe)
 ------------------
 nh3+h to nh2+h2 ts
 ------------------
 Symbolic Z-matrix:
 Charge =  0 Multiplicity = 2
 n
 h                    1    hn2
 h                    1    hn3      2    hnh3
 h                    1    hn4      3    hnh4     2    dih4     0
 xx                   3    xxh5     1    xxhn5    4    dih5     0
 h                    3    hh6      5    hhxx6    1    dih6     0
       Variables:
  hn2                   1.0254                   
  hn3                   1.2476                   
  hnh3                100.788                    
  hn4                   1.0254                   
  hnh4                100.7829                   
  dih4                106.4795                   
  xxh5                  1.      -1        0.     
  xxhn5                90.      -1        0.     
  dih5                 90.      -1        0.     
  hh6                   0.9111                   
  hhxx6                71.7624                   
  dih6                165.8207                   
 
 NAtoms=      5 NQM=        5 NQMF=       0 NMMI=      0 NMMIF=      0
                NMic=       0 NMicF=      0.
                    Isotopes and Nuclear Properties:
 (Nuclear quadrupole moments (NQMom) in fm**2, nuclear magnetic moments (NMagM)
  in nuclear magnetons)

  Atom         1           2           3           4           5
 IAtWgt=          14           1           1           1           1
 AtmWgt=  14.0030740   1.0078250   1.0078250   1.0078250   1.0078250
 NucSpn=           2           1           1           1           1
 AtZEff=   0.0000000   0.0000000   0.0000000   0.0000000   0.0000000
 NQMom=    2.0440000   0.0000000   0.0000000   0.0000000   0.0000000
 NMagM=    0.4037610   2.7928460   2.7928460   2.7928460   2.7928460
 AtZNuc=   7.0000000   1.0000000   1.0000000   1.0000000   1.0000000
 Leave Link  101 at Sun Sep 15 21:37:10 2024, MaxMem=   268435456 cpu:         0.2
 (Enter /g100_work/pMI24_ChiCa/g09d1/g09d01/d01/build-node-6-2-59348/src/main/l103.exe)

 GradGradGradGradGradGradGradGradGradGradGradGradGradGradGradGradGradGrad
 Berny optimization.
 Initialization pass.
                       ----------------------------
                       !    Initial Parameters    !
                       ! (Angstroms and Degrees)  !
 ----------------------                            ----------------------
 !      Name          Value   Derivative information (Atomic Units)     !
 ------------------------------------------------------------------------
 !       hn2         1.0254   calculate D2E/DX2 analytically            !
 !       hn3         1.2476   calculate D2E/DX2 analytically            !
 !      hnh3       100.788    calculate D2E/DX2 analytically            !
 !       hn4         1.0254   calculate D2E/DX2 analytically            !
 !      hnh4       100.7829   calculate D2E/DX2 analytically            !
 !      dih4       106.4795   calculate D2E/DX2 analytically            !
 !      xxh5         1.0      frozen, calculate D2E/DX2 analytically    !
 !      xxhn5       90.0      frozen, calculate D2E/DX2 analytically    !
 !      dih5        90.0      frozen, calculate D2E/DX2 analytically    !
 !       hh6         0.9111   calculate D2E/DX2 analytically            !
 !      hhxx6       71.7624   calculate D2E/DX2 analytically            !
 !      dih6       165.8207   calculate D2E/DX2 analytically            !
 ------------------------------------------------------------------------
 Trust Radius=3.00D-01 FncErr=1.00D-07 GrdErr=1.00D-06
 Number of steps in this run=     22 maximum allowed number of steps=    100.
 Search for a saddle point of order  1.
 GradGradGradGradGradGradGradGradGradGradGradGradGradGradGradGradGradGrad

 Leave Link  103 at Sun Sep 15 21:37:10 2024, MaxMem=   268435456 cpu:         0.1
 (Enter /g100_work/pMI24_ChiCa/g09d1/g09d01/d01/build-node-6-2-59348/src/main/l202.exe)
 ---------------------------------------------------------------------------------------------------
                            Z-MATRIX (ANGSTROMS AND DEGREES)
   CD    Cent   Atom    N1       Length/X        N2       Alpha/Y        N3        Beta/Z          J
 ---------------------------------------------------------------------------------------------------
      1      1  N 
      2      2  H        1   1.025400(     1)
      3      3  H        1   1.247600(     2)      2  100.788(     6)
      4      4  H        1   1.025400(     3)      3  100.783(     7)      2  106.480(    10)      0
      5         X        3   1.000000(     4)      1   90.000(     8)      4   90.000(    11)      0
      6      5  H        3   0.911100(     5)      5   71.762(     9)      1  165.821(    12)      0
 ---------------------------------------------------------------------------------------------------
                         Z-Matrix orientation:                         
 ---------------------------------------------------------------------
 Center     Atomic      Atomic             Coordinates (Angstroms)
 Number     Number       Type             X           Y           Z
 ---------------------------------------------------------------------
      1          7           0        0.000000    0.000000    0.000000
      2          1           0        0.000000    0.000000    1.025400
      3          1           0        1.225551    0.000000   -0.233520
      4          1           0       -0.241934    0.965916   -0.244784
      5         -1           0        1.405037    0.283672    0.708454
      6          1           0        2.089616    0.284147   -0.181031
 ---------------------------------------------------------------------
                    Distance matrix (angstroms):
                    1          2          3          4          5
     1  N    0.000000
     2  H    1.025400   0.000000
     3  H    1.247600   1.756945   0.000000
     4  H    1.025400   1.613968   1.756881   0.000000
     5  X    1.598908   1.468010   1.000000   2.021542   0.000000
     6  H    2.116602   2.429549   0.911100   2.430019   1.122422
                    6
     6  H    0.000000
 Symmetry turned off by external request.
 Stoichiometry    H4N(2)
 Framework group  C1[X(H4N)]
 Deg. of freedom     9
 Full point group                 C1      NOp   1
 Rotational constants (GHZ):    249.9767599     80.6933164     73.6003246
 Leave Link  202 at Sun Sep 15 21:37:10 2024, MaxMem=   268435456 cpu:         0.2
 (Enter /g100_work/pMI24_ChiCa/g09d1/g09d01/d01/build-node-6-2-59348/src/main/l301.exe)
 Standard basis: 6-31G(d,p) (6D, 7F)
 Ernie: Thresh=  0.10000D-02 Tol=  0.10000D-05 Strict=F.
 AO basis set in the form of general basis input (Overlap normalization):
      1 0
 S   6 1.00       0.000000000000
      0.4173511460D+04  0.1834772160D-02
      0.6274579110D+03  0.1399462700D-01
      0.1429020930D+03  0.6858655181D-01
      0.4023432930D+02  0.2322408730D+00
      0.1282021290D+02  0.4690699481D+00
      0.4390437010D+01  0.3604551991D+00
 SP   3 1.00       0.000000000000
      0.1162636186D+02 -0.1149611817D+00  0.6757974388D-01
      0.2716279807D+01 -0.1691174786D+00  0.3239072959D+00
      0.7722183966D+00  0.1145851947D+01  0.7408951398D+00
 SP   1 1.00       0.000000000000
      0.2120314975D+00  0.1000000000D+01  0.1000000000D+01
 D   1 1.00       0.000000000000
      0.8000000000D+00  0.1000000000D+01
 ****
      2 0
 S   3 1.00       0.000000000000
      0.1873113696D+02  0.3349460434D-01
      0.2825394365D+01  0.2347269535D+00
      0.6401216923D+00  0.8137573261D+00
 S   1 1.00       0.000000000000
      0.1612777588D+00  0.1000000000D+01
 P   1 1.00       0.000000000000
      0.1100000000D+01  0.1000000000D+01
 ****
      3 0
 S   3 1.00       0.000000000000
      0.1873113696D+02  0.3349460434D-01
      0.2825394365D+01  0.2347269535D+00
      0.6401216923D+00  0.8137573261D+00
 S   1 1.00       0.000000000000
      0.1612777588D+00  0.1000000000D+01
 P   1 1.00       0.000000000000
      0.1100000000D+01  0.1000000000D+01
 ****
      4 0
 S   3 1.00       0.000000000000
      0.1873113696D+02  0.3349460434D-01
      0.2825394365D+01  0.2347269535D+00
      0.6401216923D+00  0.8137573261D+00
 S   1 1.00       0.000000000000
      0.1612777588D+00  0.1000000000D+01
 P   1 1.00       0.000000000000
      0.1100000000D+01  0.1000000000D+01
 ****
      5 0
 S   3 1.00       0.000000000000
      0.1873113696D+02  0.3349460434D-01
      0.2825394365D+01  0.2347269535D+00
      0.6401216923D+00  0.8137573261D+00
 S   1 1.00       0.000000000000
      0.1612777588D+00  0.1000000000D+01
 P   1 1.00       0.000000000000
      0.1100000000D+01  0.1000000000D+01
 ****

    35 basis functions,    56 primitive gaussians,    35 cartesian basis functions
     6 alpha electrons        5 beta electrons
       nuclear repulsion energy        13.8908025277 Hartrees.
 IExCor= 4639 DFT=T Ex+Corr=wB97XD ExCW=0 ScaHFX=  1.000000
 ScaDFX=  1.000000  1.000000  1.000000  1.000000 ScalE2=  1.000000  1.000000
 IRadAn=      0 IRanWt=     -1 IRanGd=            0 ICorTp=0 IEmpDi=121
  HFx wShort=  0.000000 wLong=  0.200000 cFull=  0.222036 cShort=  0.000000 cLong=  0.777964
  DFx wShort=  0.000000 wLong=  0.200000 cFull=  0.000000 cShort=  0.000000 cLong=  1.000000
 NAtoms=    5 NActive=    5 NUniq=    5 SFac= 1.00D+00 NAtFMM=   60 NAOKFM=F Big=F
 Integral buffers will be    131072 words long.
 Raffenetti 2 integral format.
 Two-electron integral symmetry is turned off.
 R6Disp:  Grimme-D2 Dispersion energy=       -0.0005545961 Hartrees.
 Nuclear repulsion after empirical dispersion term =       13.8902479316 Hartrees.
 Leave Link  301 at Sun Sep 15 21:37:10 2024, MaxMem=   268435456 cpu:         0.1
 (Enter /g100_work/pMI24_ChiCa/g09d1/g09d01/d01/build-node-6-2-59348/src/main/l302.exe)
 NPDir=0 NMtPBC=     1 NCelOv=     1 NCel=       1 NClECP=     1 NCelD=      1
         NCelK=      1 NCelE2=     1 NClLst=     1 CellRange=     0.0.
 One-electron integrals computed using PRISM.
 NBasis=    35 RedAO= T EigKep=  1.74D-02  NBF=    35
 NBsUse=    35 1.00D-06 EigRej= -1.00D+00 NBFU=    35
 Precomputing XC quadrature grid using
 IXCGrd= 4 IRadAn=           0 IRanWt=          -1 IRanGd=           0 AccXCQ= 0.00D+00.
 Generated NRdTot=       0 NPtTot=           0 NUsed=           0 NTot=          32
 NSgBfM=    35    35    35    35    35 MxSgAt=     5 MxSgA2=     5.
 Leave Link  302 at Sun Sep 15 21:37:11 2024, MaxMem=   268435456 cpu:         1.2
 (Enter /g100_work/pMI24_ChiCa/g09d1/g09d01/d01/build-node-6-2-59348/src/main/l303.exe)
 DipDrv:  MaxL=1.
 Leave Link  303 at Sun Sep 15 21:37:11 2024, MaxMem=   268435456 cpu:         0.2
 (Enter /g100_work/pMI24_ChiCa/g09d1/g09d01/d01/build-node-6-2-59348/src/main/l401.exe)
 ExpMin= 1.61D-01 ExpMax= 4.17D+03 ExpMxC= 6.27D+02 IAcc=1 IRadAn=         1 AccDes= 0.00D+00
 Harris functional with IExCor= 4639 and IRadAn=       1 diagonalized for initial guess.
 HarFok:  IExCor= 4639 AccDes= 0.00D+00 IRadAn=         1 IDoV= 1 UseB2=F ITyADJ=14
 ICtDFT=  3500011 ScaDFX=  1.000000  1.000000  1.000000  1.000000
 FoFCou: FMM=F IPFlag=           0 FMFlag=      100000 FMFlg1=           0
         NFxFlg=           0 DoJE=T BraDBF=F KetDBF=T FulRan=T
         wScrn=  0.000000 ICntrl=     500 IOpCl=  0 I1Cent=   200000004 NGrid=           0
         NMat0=    1 NMatS0=      1 NMatT0=    0 NMatD0=    1 NMtDS0=    0 NMtDT0=    0
 Symmetry not used in FoFCou.
 Harris En= -54.3563729737707    
 JPrj=0 DoOrth=F DoCkMO=F.
 Initial guess <Sx>= 0.0000 <Sy>= 0.0000 <Sz>= 0.5000 <S**2>= 0.7500 S= 0.5000
 Leave Link  401 at Sun Sep 15 21:37:11 2024, MaxMem=   268435456 cpu:         1.2
 (Enter /g100_work/pMI24_ChiCa/g09d1/g09d01/d01/build-node-6-2-59348/src/main/l502.exe)
 UHF open shell SCF:
 Using DIIS extrapolation, IDIIS=  1040.
 Two-electron integral symmetry not used.
 Keep R1 and R2 ints in memory in canonical form, NReq=1678651.
 IVT=       23285 IEndB=       23285 NGot=   268435456 MDV=   267617112
 LenX=   267617112 LenY=   267615446
 Requested convergence on RMS density matrix=1.00D-08 within 128 cycles.
 Requested convergence on MAX density matrix=1.00D-06.
 Requested convergence on             energy=1.00D-06.
 No special actions if energy rises.
 FoFCou: FMM=F IPFlag=           0 FMFlag=           0 FMFlg1=           0
         NFxFlg=           0 DoJE=F BraDBF=F KetDBF=F FulRan=T
         wScrn=  0.000000 ICntrl=     600 IOpCl=  0 I1Cent=           0 NGrid=           0
         NMat0=    1 NMatS0=    630 NMatT0=    0 NMatD0=    1 NMtDS0=    0 NMtDT0=    0
 Symmetry not used in FoFCou.
 Integral accuracy reduced to 1.0D-05 until final iterations.

 Cycle   1  Pass 0  IDiag  1:
 E= -57.0092147922738    
 DIIS: error= 6.57D-02 at cycle   1 NSaved=   1.
 NSaved= 1 IEnMin= 1 EnMin= -57.0092147922738     IErMin= 1 ErrMin= 6.57D-02
 ErrMax= 6.57D-02  0.00D+00 EMaxC= 1.00D-01 BMatC= 1.56D-01 BMatP= 1.56D-01
 IDIUse=3 WtCom= 3.43D-01 WtEn= 6.57D-01
 Coeff-Com:  0.100D+01
 Coeff-En:   0.100D+01
 Coeff:      0.100D+01
 Gap=     0.497 Goal=   None    Shift=    0.000
 Gap=     0.332 Goal=   None    Shift=    0.000
 GapD=    0.332 DampG=1.000 DampE=0.500 DampFc=0.5000 IDamp=-1.
 Damping current iteration by 5.00D-01
 RMSDP=3.57D-03 MaxDP=4.18D-02              OVMax= 3.68D-02

 Cycle   2  Pass 0  IDiag  1:
 E= -57.0147340760949     Delta-E=       -0.005519283821 Rises=F Damp=T
 DIIS: error= 3.15D-02 at cycle   2 NSaved=   2.
 NSaved= 2 IEnMin= 2 EnMin= -57.0147340760949     IErMin= 2 ErrMin= 3.15D-02
 ErrMax= 3.15D-02  0.00D+00 EMaxC= 1.00D-01 BMatC= 3.66D-02 BMatP= 1.56D-01
 IDIUse=3 WtCom= 6.85D-01 WtEn= 3.15D-01
 Coeff-Com: -0.870D+00 0.187D+01
 Coeff-En:   0.000D+00 0.100D+01
 Coeff:     -0.596D+00 0.160D+01
 Gap=     0.498 Goal=   None    Shift=    0.000
 Gap=     0.333 Goal=   None    Shift=    0.000
 RMSDP=1.90D-03 MaxDP=1.86D-02 DE=-5.52D-03 OVMax= 1.93D-02

 Cycle   3  Pass 0  IDiag  1:
 E= -57.0207791428637     Delta-E=       -0.006045066769 Rises=F Damp=F
 DIIS: error= 2.67D-03 at cycle   3 NSaved=   3.
 NSaved= 3 IEnMin= 3 EnMin= -57.0207791428637     IErMin= 3 ErrMin= 2.67D-03
 ErrMax= 2.67D-03  0.00D+00 EMaxC= 1.00D-01 BMatC= 1.41D-03 BMatP= 3.66D-02
 IDIUse=3 WtCom= 9.73D-01 WtEn= 2.67D-02
 Coeff-Com: -0.337D+00 0.670D+00 0.667D+00
 Coeff-En:   0.000D+00 0.000D+00 0.100D+01
 Coeff:     -0.328D+00 0.652D+00 0.676D+00
 Gap=     0.501 Goal=   None    Shift=    0.000
 Gap=     0.340 Goal=   None    Shift=    0.000
 RMSDP=6.15D-04 MaxDP=8.80D-03 DE=-6.05D-03 OVMax= 7.51D-03

 Cycle   4  Pass 0  IDiag  1:
 E= -57.0211371661764     Delta-E=       -0.000358023313 Rises=F Damp=F
 DIIS: error= 9.79D-04 at cycle   4 NSaved=   4.
 NSaved= 4 IEnMin= 4 EnMin= -57.0211371661764     IErMin= 4 ErrMin= 9.79D-04
 ErrMax= 9.79D-04  0.00D+00 EMaxC= 1.00D-01 BMatC= 8.80D-05 BMatP= 1.41D-03
 IDIUse=3 WtCom= 9.90D-01 WtEn= 9.79D-03
 Coeff-Com:  0.130D+00-0.270D+00-0.212D-01 0.116D+01
 Coeff-En:   0.000D+00 0.000D+00 0.000D+00 0.100D+01
 Coeff:      0.128D+00-0.267D+00-0.210D-01 0.116D+01
 Gap=     0.501 Goal=   None    Shift=    0.000
 Gap=     0.340 Goal=   None    Shift=    0.000
 RMSDP=2.63D-04 MaxDP=3.02D-03 DE=-3.58D-04 OVMax= 4.48D-03

 Cycle   5  Pass 0  IDiag  1:
 E= -57.0211862543334     Delta-E=       -0.000049088157 Rises=F Damp=F
 DIIS: error= 1.59D-04 at cycle   5 NSaved=   5.
 NSaved= 5 IEnMin= 5 EnMin= -57.0211862543334     IErMin= 5 ErrMin= 1.59D-04
 ErrMax= 1.59D-04  0.00D+00 EMaxC= 1.00D-01 BMatC= 5.93D-06 BMatP= 8.80D-05
 IDIUse=3 WtCom= 9.98D-01 WtEn= 1.59D-03
 Coeff-Com:  0.332D-01-0.662D-01-0.716D-01 0.282D-01 0.108D+01
 Coeff-En:   0.000D+00 0.000D+00 0.000D+00 0.000D+00 0.100D+01
 Coeff:      0.331D-01-0.661D-01-0.714D-01 0.281D-01 0.108D+01
 Gap=     0.501 Goal=   None    Shift=    0.000
 Gap=     0.340 Goal=   None    Shift=    0.000
 RMSDP=9.31D-05 MaxDP=1.07D-03 DE=-4.91D-05 OVMax= 1.27D-03

 Cycle   6  Pass 0  IDiag  1:
 E= -57.0211906241618     Delta-E=       -0.000004369828 Rises=F Damp=F
 DIIS: error= 6.43D-05 at cycle   6 NSaved=   6.
 NSaved= 6 IEnMin= 6 EnMin= -57.0211906241618     IErMin= 6 ErrMin= 6.43D-05
 ErrMax= 6.43D-05  0.00D+00 EMaxC= 1.00D-01 BMatC= 4.43D-07 BMatP= 5.93D-06
 IDIUse=1 WtCom= 1.00D+00 WtEn= 0.00D+00
 Coeff-Com: -0.204D-01 0.414D-01 0.242D-01-0.577D-01-0.458D+00 0.147D+01
 Coeff:     -0.204D-01 0.414D-01 0.242D-01-0.577D-01-0.458D+00 0.147D+01
 Gap=     0.501 Goal=   None    Shift=    0.000
 Gap=     0.340 Goal=   None    Shift=    0.000
 RMSDP=3.15D-05 MaxDP=3.70D-04 DE=-4.37D-06 OVMax= 5.57D-04

 Cycle   7  Pass 0  IDiag  1:
 E= -57.0211911228561     Delta-E=       -0.000000498694 Rises=F Damp=F
 DIIS: error= 1.91D-05 at cycle   7 NSaved=   7.
 NSaved= 7 IEnMin= 7 EnMin= -57.0211911228561     IErMin= 7 ErrMin= 1.91D-05
 ErrMax= 1.91D-05  0.00D+00 EMaxC= 1.00D-01 BMatC= 3.78D-08 BMatP= 4.43D-07
 IDIUse=1 WtCom= 1.00D+00 WtEn= 0.00D+00
 Coeff-Com:  0.503D-02-0.103D-01-0.463D-02 0.233D-01 0.783D-01-0.516D+00
 Coeff-Com:  0.142D+01
 Coeff:      0.503D-02-0.103D-01-0.463D-02 0.233D-01 0.783D-01-0.516D+00
 Coeff:      0.142D+01
 Gap=     0.501 Goal=   None    Shift=    0.000
 Gap=     0.340 Goal=   None    Shift=    0.000
 RMSDP=1.21D-05 MaxDP=1.47D-04 DE=-4.99D-07 OVMax= 2.90D-04

 Cycle   8  Pass 0  IDiag  1:
 E= -57.0211911789847     Delta-E=       -0.000000056129 Rises=F Damp=F
 DIIS: error= 1.11D-05 at cycle   8 NSaved=   8.
 NSaved= 8 IEnMin= 8 EnMin= -57.0211911789847     IErMin= 8 ErrMin= 1.11D-05
 ErrMax= 1.11D-05  0.00D+00 EMaxC= 1.00D-01 BMatC= 4.84D-09 BMatP= 3.78D-08
 IDIUse=1 WtCom= 1.00D+00 WtEn= 0.00D+00
 Coeff-Com:  0.122D-02-0.246D-02-0.236D-02 0.409D-02 0.295D-01-0.621D-01
 Coeff-Com: -0.217D+00 0.125D+01
 Coeff:      0.122D-02-0.246D-02-0.236D-02 0.409D-02 0.295D-01-0.621D-01
 Coeff:     -0.217D+00 0.125D+01
 Gap=     0.501 Goal=   None    Shift=    0.000
 Gap=     0.340 Goal=   None    Shift=    0.000
 RMSDP=4.61D-06 MaxDP=5.41D-05 DE=-5.61D-08 OVMax= 1.39D-04

 Initial convergence to 1.0D-05 achieved.  Increase integral accuracy.
 Cycle   9  Pass 1  IDiag  1:
 E= -57.0211936802380     Delta-E=       -0.000002501253 Rises=F Damp=F
 DIIS: error= 7.95D-05 at cycle   1 NSaved=   1.
 NSaved= 1 IEnMin= 1 EnMin= -57.0211936802380     IErMin= 1 ErrMin= 7.95D-05
 ErrMax= 7.95D-05  0.00D+00 EMaxC= 1.00D-01 BMatC= 9.73D-07 BMatP= 9.73D-07
 IDIUse=1 WtCom= 1.00D+00 WtEn= 0.00D+00
 Coeff-Com:  0.100D+01
 Coeff:      0.100D+01
 Gap=     0.501 Goal=   None    Shift=    0.000
 Gap=     0.340 Goal=   None    Shift=    0.000
 RMSDP=4.61D-06 MaxDP=5.41D-05 DE=-2.50D-06 OVMax= 1.47D-04

 Cycle  10  Pass 1  IDiag  1:
 E= -57.0211938651131     Delta-E=       -0.000000184875 Rises=F Damp=F
 DIIS: error= 1.07D-05 at cycle   2 NSaved=   2.
 NSaved= 2 IEnMin= 2 EnMin= -57.0211938651131     IErMin= 2 ErrMin= 1.07D-05
 ErrMax= 1.07D-05  0.00D+00 EMaxC= 1.00D-01 BMatC= 2.89D-08 BMatP= 9.73D-07
 IDIUse=1 WtCom= 1.00D+00 WtEn= 0.00D+00
 Coeff-Com: -0.449D-01 0.104D+01
 Coeff:     -0.449D-01 0.104D+01
 Gap=     0.501 Goal=   None    Shift=    0.000
 Gap=     0.340 Goal=   None    Shift=    0.000
 RMSDP=3.28D-06 MaxDP=3.77D-05 DE=-1.85D-07 OVMax= 6.61D-05

 Cycle  11  Pass 1  IDiag  1:
 E= -57.0211938695507     Delta-E=       -0.000000004438 Rises=F Damp=F
 DIIS: error= 1.01D-05 at cycle   3 NSaved=   3.
 NSaved= 3 IEnMin= 3 EnMin= -57.0211938695507     IErMin= 3 ErrMin= 1.01D-05
 ErrMax= 1.01D-05  0.00D+00 EMaxC= 1.00D-01 BMatC= 1.85D-08 BMatP= 2.89D-08
 IDIUse=1 WtCom= 1.00D+00 WtEn= 0.00D+00
 Coeff-Com: -0.435D-01 0.475D+00 0.568D+00
 Coeff:     -0.435D-01 0.475D+00 0.568D+00
 Gap=     0.501 Goal=   None    Shift=    0.000
 Gap=     0.340 Goal=   None    Shift=    0.000
 RMSDP=1.53D-06 MaxDP=2.07D-05 DE=-4.44D-09 OVMax= 2.95D-05

 Cycle  12  Pass 1  IDiag  1:
 E= -57.0211938736936     Delta-E=       -0.000000004143 Rises=F Damp=F
 DIIS: error= 2.48D-06 at cycle   4 NSaved=   4.
 NSaved= 4 IEnMin= 4 EnMin= -57.0211938736936     IErMin= 4 ErrMin= 2.48D-06
 ErrMax= 2.48D-06  0.00D+00 EMaxC= 1.00D-01 BMatC= 5.30D-10 BMatP= 1.85D-08
 IDIUse=1 WtCom= 1.00D+00 WtEn= 0.00D+00
 Coeff-Com:  0.120D-02-0.856D-01 0.336D-01 0.105D+01
 Coeff:      0.120D-02-0.856D-01 0.336D-01 0.105D+01
 Gap=     0.501 Goal=   None    Shift=    0.000
 Gap=     0.340 Goal=   None    Shift=    0.000
 RMSDP=5.53D-07 MaxDP=5.45D-06 DE=-4.14D-09 OVMax= 1.80D-05

 Cycle  13  Pass 1  IDiag  1:
 E= -57.0211938740629     Delta-E=       -0.000000000369 Rises=F Damp=F
 DIIS: error= 1.36D-06 at cycle   5 NSaved=   5.
 NSaved= 5 IEnMin= 5 EnMin= -57.0211938740629     IErMin= 5 ErrMin= 1.36D-06
 ErrMax= 1.36D-06  0.00D+00 EMaxC= 1.00D-01 BMatC= 6.08D-11 BMatP= 5.30D-10
 IDIUse=1 WtCom= 1.00D+00 WtEn= 0.00D+00
 Coeff-Com:  0.306D-02-0.285D-01-0.516D-01-0.718D-01 0.115D+01
 Coeff:      0.306D-02-0.285D-01-0.516D-01-0.718D-01 0.115D+01
 Gap=     0.501 Goal=   None    Shift=    0.000
 Gap=     0.340 Goal=   None    Shift=    0.000
 RMSDP=3.03D-07 MaxDP=3.36D-06 DE=-3.69D-10 OVMax= 1.10D-05

 Cycle  14  Pass 1  IDiag  1:
 E= -57.0211938741552     Delta-E=       -0.000000000092 Rises=F Damp=F
 DIIS: error= 7.78D-07 at cycle   6 NSaved=   6.
 NSaved= 6 IEnMin= 6 EnMin= -57.0211938741552     IErMin= 6 ErrMin= 7.78D-07
 ErrMax= 7.78D-07  0.00D+00 EMaxC= 1.00D-01 BMatC= 1.30D-11 BMatP= 6.08D-11
 IDIUse=1 WtCom= 1.00D+00 WtEn= 0.00D+00
 Coeff-Com: -0.727D-03 0.175D-01-0.372D-03-0.127D+00-0.283D+00 0.139D+01
 Coeff:     -0.727D-03 0.175D-01-0.372D-03-0.127D+00-0.283D+00 0.139D+01
 Gap=     0.501 Goal=   None    Shift=    0.000
 Gap=     0.340 Goal=   None    Shift=    0.000
 RMSDP=2.21D-07 MaxDP=2.44D-06 DE=-9.24D-11 OVMax= 8.87D-06

 Cycle  15  Pass 1  IDiag  1:
 E= -57.0211938741861     Delta-E=       -0.000000000031 Rises=F Damp=F
 DIIS: error= 3.22D-07 at cycle   7 NSaved=   7.
 NSaved= 7 IEnMin= 7 EnMin= -57.0211938741861     IErMin= 7 ErrMin= 3.22D-07
 ErrMax= 3.22D-07  0.00D+00 EMaxC= 1.00D-01 BMatC= 2.71D-12 BMatP= 1.30D-11
 IDIUse=1 WtCom= 1.00D+00 WtEn= 0.00D+00
 Coeff-Com: -0.194D-03-0.421D-02 0.537D-02 0.101D+00-0.516D-01-0.832D+00
 Coeff-Com:  0.178D+01
 Coeff:     -0.194D-03-0.421D-02 0.537D-02 0.101D+00-0.516D-01-0.832D+00
 Coeff:      0.178D+01
 Gap=     0.501 Goal=   None    Shift=    0.000
 Gap=     0.340 Goal=   None    Shift=    0.000
 RMSDP=1.38D-07 MaxDP=1.39D-06 DE=-3.09D-11 OVMax= 5.65D-06

 Cycle  16  Pass 1  IDiag  1:
 E= -57.0211938741929     Delta-E=       -0.000000000007 Rises=F Damp=F
 DIIS: error= 6.33D-08 at cycle   8 NSaved=   8.
 NSaved= 8 IEnMin= 8 EnMin= -57.0211938741929     IErMin= 8 ErrMin= 6.33D-08
 ErrMax= 6.33D-08  0.00D+00 EMaxC= 1.00D-01 BMatC= 2.31D-13 BMatP= 2.71D-12
 IDIUse=1 WtCom= 1.00D+00 WtEn= 0.00D+00
 Coeff-Com:  0.162D-03-0.808D-05-0.357D-02-0.272D-01 0.460D-01 0.258D+00
 Coeff-Com: -0.875D+00 0.160D+01
 Coeff:      0.162D-03-0.808D-05-0.357D-02-0.272D-01 0.460D-01 0.258D+00
 Coeff:     -0.875D+00 0.160D+01
 Gap=     0.501 Goal=   None    Shift=    0.000
 Gap=     0.340 Goal=   None    Shift=    0.000
 RMSDP=4.29D-08 MaxDP=3.98D-07 DE=-6.84D-12 OVMax= 1.45D-06

 Cycle  17  Pass 1  IDiag  1:
 E= -57.0211938741935     Delta-E=       -0.000000000001 Rises=F Damp=F
 DIIS: error= 1.20D-08 at cycle   9 NSaved=   9.
 NSaved= 9 IEnMin= 9 EnMin= -57.0211938741935     IErMin= 9 ErrMin= 1.20D-08
 ErrMax= 1.20D-08  0.00D+00 EMaxC= 1.00D-01 BMatC= 1.50D-14 BMatP= 2.31D-13
 IDIUse=1 WtCom= 1.00D+00 WtEn= 0.00D+00
 Coeff-Com: -0.506D-04 0.324D-03 0.785D-03 0.369D-02-0.134D-01-0.447D-01
 Coeff-Com:  0.211D+00-0.625D+00 0.147D+01
 Coeff:     -0.506D-04 0.324D-03 0.785D-03 0.369D-02-0.134D-01-0.447D-01
 Coeff:      0.211D+00-0.625D+00 0.147D+01
 Gap=     0.501 Goal=   None    Shift=    0.000
 Gap=     0.340 Goal=   None    Shift=    0.000
 RMSDP=1.06D-08 MaxDP=1.28D-07 DE=-5.83D-13 OVMax= 2.82D-07

 Cycle  18  Pass 1  IDiag  1:
 E= -57.0211938741933     Delta-E=        0.000000000000 Rises=F Damp=F
 DIIS: error= 3.02D-09 at cycle  10 NSaved=  10.
 NSaved=10 IEnMin= 9 EnMin= -57.0211938741935     IErMin=10 ErrMin= 3.02D-09
 ErrMax= 3.02D-09  0.00D+00 EMaxC= 1.00D-01 BMatC= 9.36D-16 BMatP= 1.50D-14
 IDIUse=1 WtCom= 1.00D+00 WtEn= 0.00D+00
 Coeff-Com: -0.142D-04-0.133D-04 0.239D-03 0.271D-02-0.392D-02-0.227D-01
 Coeff-Com:  0.762D-01-0.119D+00-0.784D-01 0.115D+01
 Coeff:     -0.142D-04-0.133D-04 0.239D-03 0.271D-02-0.392D-02-0.227D-01
 Coeff:      0.762D-01-0.119D+00-0.784D-01 0.115D+01
 Gap=     0.501 Goal=   None    Shift=    0.000
 Gap=     0.340 Goal=   None    Shift=    0.000
 RMSDP=1.78D-09 MaxDP=2.34D-08 DE= 2.13D-13 OVMax= 2.76D-08

 SCF Done:  E(UwB97XD) =  -57.0211938742     A.U. after   18 cycles
            NFock= 18  Conv=0.18D-08     -V/T= 2.0086
 <Sx>= 0.0000 <Sy>= 0.0000 <Sz>= 0.5000 <S**2>= 0.7579 S= 0.5039
 <L.S>=  0.00000000000    
 KE= 5.653343972302D+01 PE=-1.604205432829D+02 EE= 3.297566175408D+01
 Annihilation of the first spin contaminant:
 S**2 before annihilation     0.7579,   after     0.7500
 Leave Link  502 at Sun Sep 15 21:37:11 2024, MaxMem=   268435456 cpu:         9.1
 (Enter /g100_work/pMI24_ChiCa/g09d1/g09d01/d01/build-node-6-2-59348/src/main/l801.exe)
 DoSCS=F DFT=T ScalE2(SS,OS)=  1.000000  1.000000
 Range of M.O.s used for correlation:     1    35
 NBasis=    35 NAE=     6 NBE=     5 NFC=     0 NFV=     0
 NROrb=     35 NOA=     6 NOB=     5 NVA=    29 NVB=    30
 Leave Link  801 at Sun Sep 15 21:37:11 2024, MaxMem=   268435456 cpu:         0.1
 (Enter /g100_work/pMI24_ChiCa/g09d1/g09d01/d01/build-node-6-2-59348/src/main/l1101.exe)
 Using compressed storage, NAtomX=     5.
 Will process      6 centers per pass.
 R6Disp: Adding Grimme-D2 dispersion energy 1st derivatives to the gradient.
 Leave Link 1101 at Sun Sep 15 21:37:11 2024, MaxMem=   268435456 cpu:         1.3
 (Enter /g100_work/pMI24_ChiCa/g09d1/g09d01/d01/build-node-6-2-59348/src/main/l1102.exe)
 Symmetrizing basis deriv contribution to polar:
 IMax=3 JMax=2 DiffMx= 0.00D+00
 Leave Link 1102 at Sun Sep 15 21:37:11 2024, MaxMem=   268435456 cpu:         0.2
 (Enter /g100_work/pMI24_ChiCa/g09d1/g09d01/d01/build-node-6-2-59348/src/main/l1110.exe)
 Forming Gx(P) for the SCF density, NAtomX=     5.
 Integral derivatives from FoFJK, PRISM(SPDF).
 Do as many integral derivatives as possible in FoFJK.
 G2DrvN: MDV=     268435312.
 G2DrvN: will do     6 centers at a time, making    1 passes.
 Calling FoFCou, ICntrl=  3107 FMM=F I1Cent=   0 AccDes= 0.00D+00.
 FoFJK:  IHMeth= 1 ICntrl=    3107 DoSepK=T KAlg= 0 I1Cent=   0 FoldK=F
 IRaf=         1 NMat=   1 IRICut=       1 DoRegI=T DoRafI=F ISym2E= 0.
 FoFCou: FMM=F IPFlag=           0 FMFlag=      100000 FMFlg1=           0
         NFxFlg=           0 DoJE=F BraDBF=F KetDBF=F FulRan=T
         wScrn=  0.000000 ICntrl=    3507 IOpCl=  0 I1Cent=           0 NGrid=           0
         NMat0=    1 NMatS0=      1 NMatT0=    0 NMatD0=    1 NMtDS0=    0 NMtDT0=    0
 Symmetry not used in FoFCou.
 End of G2Drv F.D. properties file   721 does not exist.
 End of G2Drv F.D. properties file   722 does not exist.
 End of G2Drv F.D. properties file   788 does not exist.
 Leave Link 1110 at Sun Sep 15 21:37:12 2024, MaxMem=   268435456 cpu:         4.8
 (Enter /g100_work/pMI24_ChiCa/g09d1/g09d01/d01/build-node-6-2-59348/src/main/l1002.exe)
 Minotr:  UHF open shell wavefunction.
          IDoAtm=11111
          Direct CPHF calculation.
          Differentiating once with respect to nuclear coordinates.
          Requested convergence is 1.0D-08 RMS, and 1.0D-07 maximum.
          Secondary convergence is 1.0D-12 RMS, and 1.0D-12 maximum.
          NewPWx=T KeepS1=F KeepF1=F KeepIn=T MapXYZ=F SortEE=F KeepMc=T.
          MDV=     268435332 using IRadAn=       2.
 Generate precomputed XC quadrature information.
 Keep R1 and R2 ints in memory in canonical form, NReq=1655389.
 FoFCou: FMM=F IPFlag=           0 FMFlag=           0 FMFlg1=           0
         NFxFlg=           0 DoJE=F BraDBF=F KetDBF=F FulRan=T
         wScrn=  0.000000 ICntrl=     600 IOpCl=  0 I1Cent=           0 NGrid=           0
         NMat0=    1 NMatS0=    630 NMatT0=    0 NMatD0=    1 NMtDS0=    0 NMtDT0=    0
 Symmetry not used in FoFCou.
          Solving linear equations simultaneously, MaxMat=       0.
          There are    18 degrees of freedom in the 1st order CPHF.  IDoFFX=6 NUNeed=     0.
     12 vectors produced by pass  0 Test12= 1.80D-15 5.56D-09 XBig12= 9.92D-02 2.13D-01.
 AX will form    12 AO Fock derivatives at one time.
     12 vectors produced by pass  1 Test12= 1.80D-15 5.56D-09 XBig12= 5.93D-03 3.03D-02.
     12 vectors produced by pass  2 Test12= 1.80D-15 5.56D-09 XBig12= 2.23D-04 6.57D-03.
     12 vectors produced by pass  3 Test12= 1.80D-15 5.56D-09 XBig12= 1.64D-06 4.01D-04.
     12 vectors produced by pass  4 Test12= 1.80D-15 5.56D-09 XBig12= 1.17D-08 4.64D-05.
     12 vectors produced by pass  5 Test12= 1.80D-15 5.56D-09 XBig12= 6.85D-11 3.18D-06.
      7 vectors produced by pass  6 Test12= 1.80D-15 5.56D-09 XBig12= 3.77D-13 1.73D-07.
      2 vectors produced by pass  7 Test12= 1.80D-15 5.56D-09 XBig12= 1.42D-15 1.11D-08.
 InvSVY:  IOpt=1 It=  1 EMax= 1.44D-15
 Solved reduced A of dimension    81 with    12 vectors.
 End of Minotr F.D. properties file   721 does not exist.
 End of Minotr F.D. properties file   722 does not exist.
 End of Minotr F.D. properties file   788 does not exist.
 Leave Link 1002 at Sun Sep 15 21:37:12 2024, MaxMem=   268435456 cpu:         6.8
 (Enter /g100_work/pMI24_ChiCa/g09d1/g09d01/d01/build-node-6-2-59348/src/main/l601.exe)
 Copying SCF densities to generalized density rwf, IOpCl= 1 IROHF=0.

 **********************************************************************

            Population analysis using the SCF density.

 **********************************************************************

 Alpha  occ. eigenvalues --  -14.47033  -0.96861  -0.58274  -0.56128  -0.40507
 Alpha  occ. eigenvalues --   -0.33084
 Alpha virt. eigenvalues --    0.17033   0.23725   0.29316   0.72110   0.74557
 Alpha virt. eigenvalues --    0.77759   0.82602   0.94579   0.96702   1.02481
 Alpha virt. eigenvalues --    1.23386   1.46253   1.49265   1.76429   1.85950
 Alpha virt. eigenvalues --    1.95612   2.06821   2.26844   2.35670   2.43963
 Alpha virt. eigenvalues --    2.48321   2.69244   2.88832   2.94439   3.01623
 Alpha virt. eigenvalues --    3.32813   3.51198   3.82644   4.18625
  Beta  occ. eigenvalues --  -14.45895  -0.93305  -0.55024  -0.53355  -0.37235
  Beta virt. eigenvalues --   -0.03199   0.17900   0.24263   0.31605   0.73434
  Beta virt. eigenvalues --    0.74648   0.81699   0.86651   0.95414   0.98219
  Beta virt. eigenvalues --    1.04695   1.24916   1.48933   1.50372   1.79879
  Beta virt. eigenvalues --    1.89798   1.99649   2.10817   2.27397   2.36289
  Beta virt. eigenvalues --    2.46162   2.51029   2.72455   2.90682   2.95148
  Beta virt. eigenvalues --    3.03055   3.34509   3.51919   3.85284   4.21604
     Alpha Molecular Orbital Coefficients:
                           1         2         3         4         5
                           O         O         O         O         O
     Eigenvalues --   -14.47033  -0.96861  -0.58274  -0.56128  -0.40507
   1 1   N  1S          0.99284  -0.20092   0.01750   0.00000   0.08768
   2        2S          0.03424   0.42494  -0.03793  -0.00000  -0.19930
   3        2PX         0.00026   0.03438   0.33629   0.07384   0.08491
   4        2PY         0.00130   0.09260  -0.09253  -0.29484   0.41024
   5        2PZ         0.00094   0.06387  -0.13444   0.38774   0.29578
   6        3S          0.00335   0.44176  -0.04895   0.00001  -0.36254
   7        3PX        -0.00003   0.02445   0.18123   0.03654   0.10114
   8        3PY        -0.00032   0.04335  -0.04092  -0.14586   0.29542
   9        3PZ        -0.00024   0.02831  -0.06565   0.19182   0.20538
  10        4XX        -0.00780   0.00050   0.02321   0.00070  -0.01114
  11        4YY        -0.00771  -0.00868  -0.00852  -0.03083   0.02343
  12        4ZZ        -0.00768  -0.00891  -0.00938   0.03013   0.01143
  13        4XY        -0.00002   0.00173   0.01197   0.00284   0.00696
  14        4XZ         0.00002  -0.00079   0.00269   0.00544   0.00777
  15        4YZ        -0.00007  -0.00001  -0.00456   0.01018   0.01917
  16 2   H  1S          0.00005   0.14957  -0.09520   0.24153   0.10922
  17        2S         -0.00027   0.01564  -0.05787   0.16171   0.10791
  18        3PX        -0.00001   0.00030   0.00876   0.00215   0.00232
  19        3PY        -0.00002   0.00202  -0.00304  -0.00661   0.01278
  20        3PZ         0.00035  -0.01876   0.00459  -0.00757   0.00156
  21 3   H  1S          0.00024   0.09048   0.27508  -0.00001   0.02347
  22        2S         -0.00048   0.00196   0.18364  -0.00004  -0.05565
  23        3PX        -0.00011  -0.01137  -0.00080   0.00141   0.01357
  24        3PY         0.00000   0.00207   0.00460  -0.00561   0.01042
  25        3PZ         0.00002   0.00374   0.00367   0.00737   0.00535
  26 4   H  1S          0.00005   0.14957  -0.09520  -0.24154   0.10925
  27        2S         -0.00027   0.01564  -0.05787  -0.16170   0.10794
  28        3PX        -0.00009   0.00508   0.00674  -0.00266   0.00414
  29        3PY         0.00032  -0.01704   0.00504   0.00862   0.00551
  30        3PZ        -0.00010   0.00631  -0.00603   0.00492   0.01113
  31 5   H  1S         -0.00003   0.02867   0.22273   0.00003   0.11899
  32        2S          0.00016   0.01855   0.18935   0.00005   0.20389
  33        3PX         0.00002  -0.00364  -0.01253   0.00020  -0.00322
  34        3PY        -0.00000  -0.00130  -0.00435  -0.00081   0.00062
  35        3PZ        -0.00000  -0.00030  -0.00093   0.00106   0.00108
                           6         7         8         9        10
                           O         V         V         V         V
     Eigenvalues --    -0.33084   0.17033   0.23725   0.29316   0.72110
   1 1   N  1S         -0.01734  -0.10984  -0.00002   0.05685   0.01649
   2        2S          0.03785   0.15923   0.00001  -0.09148  -0.03708
   3        2PX         0.49313  -0.07282  -0.06344  -0.24812   0.10845
   4        2PY         0.10863   0.19676   0.25341   0.10785   0.50427
   5        2PZ        -0.01126   0.16350  -0.33326   0.12927   0.36352
   6        3S          0.14315   1.56951   0.00022  -0.72897  -0.44644
   7        3PX         0.40276  -0.06208  -0.14385  -0.77687  -0.28896
   8        3PY         0.09783   0.46981   0.57492   0.15771  -0.61075
   9        3PZ        -0.00230   0.36913  -0.75606   0.26762  -0.41145
  10        4XX         0.00119  -0.02470  -0.00251   0.03102  -0.10121
  11        4YY         0.00020  -0.02808   0.00361   0.00900  -0.00214
  12        4ZZ        -0.00619  -0.03381  -0.00112   0.01035  -0.00810
  13        4XY         0.01646   0.00300   0.00526  -0.01594   0.00138
  14        4XZ         0.01097  -0.00137  -0.00772  -0.01900   0.02144
  15        4YZ         0.00213   0.01105  -0.00226   0.01097   0.00514
  16 2   H  1S         -0.00686  -0.08330   0.10756  -0.02140   0.11546
  17        2S         -0.04362  -1.14093   1.37359  -0.26965   0.00308
  18        3PX         0.01266  -0.00310  -0.00105  -0.00701   0.02681
  19        3PY         0.00286   0.00146   0.00664   0.00333   0.00612
  20        3PZ        -0.00105  -0.01048   0.00508   0.00368  -0.04490
  21 3   H  1S         -0.02579  -0.00320  -0.00004   0.30497  -0.60322
  22        2S         -0.06774  -0.27355  -0.00051   2.54101   1.13810
  23        3PX        -0.02868   0.00508  -0.00069   0.00828  -0.03112
  24        3PY        -0.00167   0.00234   0.00273  -0.00067  -0.03241
  25        3PZ         0.00416   0.00081  -0.00358  -0.00211  -0.01890
  26 4   H  1S         -0.00690  -0.08327  -0.10758  -0.02165   0.11366
  27        2S         -0.04366  -1.14079  -1.37356  -0.27033   0.00326
  28        3PX         0.01285  -0.00023   0.00101  -0.00694   0.03730
  29        3PY         0.00210  -0.01002  -0.00648   0.00315  -0.03574
  30        3PZ        -0.00005   0.00461  -0.00529   0.00391   0.01008
  31 5   H  1S         -0.30553   0.06900  -0.00001  -0.00120  -0.50311
  32        2S         -0.48652   0.23398   0.00033  -1.77103   0.14999
  33        3PX         0.00376   0.00121   0.00028  -0.02225   0.06522
  34        3PY         0.00282  -0.00037  -0.00110  -0.01664  -0.00473
  35        3PZ         0.00143  -0.00052   0.00145  -0.00847  -0.01605
                          11        12        13        14        15
                           V         V         V         V         V
     Eigenvalues --     0.74557   0.77759   0.82602   0.94579   0.96702
   1 1   N  1S          0.00004   0.00431   0.02587  -0.00002   0.02335
   2        2S         -0.00036   0.07093  -0.13732   0.00025  -0.42456
   3        2PX        -0.05458  -0.79294   0.08940  -0.13126   0.48120
   4        2PY         0.21899  -0.31213   0.17494   0.52314  -0.44622
   5        2PZ        -0.28594  -0.08632   0.11615  -0.68738  -0.43174
   6        3S         -0.00024  -0.07508   0.05018  -0.00048   0.81164
   7        3PX         0.16331   1.06987   0.21899   0.22634  -1.11617
   8        3PY        -0.65386   0.22308  -0.46483  -0.90168   0.76385
   9        3PZ         0.85723  -0.03413  -0.39574   1.18484   0.79505
  10        4XX         0.01277  -0.05170  -0.13818  -0.01193  -0.14475
  11        4YY         0.11738   0.07740   0.03663  -0.16669   0.02288
  12        4ZZ        -0.13050   0.09427   0.07293   0.17864   0.06213
  13        4XY        -0.04687  -0.02164  -0.04340   0.05179  -0.06904
  14        4XZ         0.02495   0.02116   0.02347  -0.01671   0.00024
  15        4YZ        -0.03192  -0.03268  -0.06369   0.04813  -0.05053
  16 2   H  1S         -0.65279   0.25109   0.50511   0.42437   0.38293
  17        2S          0.13101  -0.14209  -0.11044  -1.38301  -1.11131
  18        3PX         0.00927   0.01240   0.00984  -0.00527   0.00832
  19        3PY        -0.02851  -0.01778  -0.03354   0.02234  -0.01648
  20        3PZ         0.00586   0.02865   0.02890   0.13687   0.11243
  21 3   H  1S         -0.00055  -0.30149  -0.06863   0.00006  -0.33474
  22        2S          0.00129  -0.02899  -0.04736  -0.00073   1.80781
  23        3PX         0.00968   0.06919   0.10781  -0.00092  -0.06105
  24        3PY        -0.03868  -0.01412   0.00592   0.00374  -0.04344
  25        3PZ         0.05074  -0.02394  -0.01590  -0.00489  -0.02151
  26 4   H  1S          0.65341   0.25122   0.50452  -0.42487   0.38289
  27        2S         -0.13088  -0.14225  -0.11033   1.38418  -1.10999
  28        3PX        -0.00226   0.00188  -0.00342   0.03335  -0.02145
  29        3PY         0.00077   0.02417   0.01945  -0.13443   0.10259
  30        3PZ         0.03049  -0.02651  -0.04084   0.01043  -0.04427
  31 5   H  1S         -0.00043  -0.23431   0.86465   0.00008  -0.24913
  32        2S         -0.00027   0.10392  -0.78223   0.00017  -0.41928
  33        3PX         0.00560   0.00369   0.03265   0.00155   0.02727
  34        3PY        -0.02240   0.01156  -0.00749  -0.00633  -0.01764
  35        3PZ         0.02937   0.00812  -0.01188   0.00832  -0.01870
                          16        17        18        19        20
                           V         V         V         V         V
     Eigenvalues --     1.02481   1.23386   1.46253   1.49265   1.76429
   1 1   N  1S         -0.02130  -0.08137   0.00000   0.00176  -0.03054
   2        2S          0.76238  -1.34313   0.00016   0.08716  -0.55982
   3        2PX         0.16025  -0.17519   0.00428   0.03174  -0.12949
   4        2PY        -0.13288  -0.06351  -0.01682   0.01849   0.00885
   5        2PZ        -0.13169  -0.01482   0.02189   0.00803   0.03150
   6        3S         -1.78390   3.48182  -0.00037  -0.24383   1.33968
   7        3PX        -0.54669   0.53845  -0.02523  -0.28893   0.44318
   8        3PY         0.27097   0.46953   0.10079   0.10738   0.29415
   9        3PZ         0.31065   0.25415  -0.13251   0.13648   0.13897
  10        4XX         0.02388  -0.28622   0.16910   0.14148   0.12179
  11        4YY         0.14889  -0.16895  -0.19162  -0.14089  -0.31495
  12        4ZZ         0.10410  -0.30122   0.02258   0.00939  -0.02551
  13        4XY         0.03712   0.19665  -0.36305   0.28000  -0.47978
  14        4XZ         0.03809   0.13057   0.51504   0.27231  -0.37394
  15        4YZ         0.06302   0.14198   0.13653  -0.53201  -0.25737
  16 2   H  1S         -0.32028  -0.33079   0.04675  -0.04462  -0.25171
  17        2S          0.22872  -0.63359   0.03594  -0.04586  -0.20186
  18        3PX         0.03258   0.07227   0.25622   0.11369  -0.17000
  19        3PY         0.03501   0.08207   0.09117  -0.26961  -0.12280
  20        3PZ        -0.03923   0.00085   0.00062  -0.01109  -0.01960
  21 3   H  1S         -0.85682  -0.33794  -0.00014  -0.06162  -0.35959
  22        2S          2.50042  -0.82794   0.00043   0.53450  -0.19306
  23        3PX         0.02795   0.09075   0.04577  -0.00097  -0.13005
  24        3PY         0.02947   0.14338  -0.18324   0.20163  -0.00440
  25        3PZ         0.01713   0.09193   0.23994   0.15404   0.02204
  26 4   H  1S         -0.31977  -0.33096  -0.04661  -0.04471  -0.25174
  27        2S          0.22822  -0.63362  -0.03595  -0.04601  -0.20198
  28        3PX         0.04673   0.08346  -0.26121   0.06186  -0.17930
  29        3PY        -0.02115   0.03702  -0.07223  -0.06678  -0.08369
  30        3PZ         0.03469   0.06001  -0.02441  -0.27820  -0.07108
  31 5   H  1S          0.55615   0.22789  -0.00003  -0.06608   0.28105
  32        2S         -1.54189   0.07463  -0.00022  -0.20492  -0.14881
  33        3PX         0.09153   0.00683   0.01828  -0.05215   0.14075
  34        3PY         0.01843   0.10347  -0.07344   0.06211   0.23574
  35        3PZ        -0.00340   0.07760   0.09609   0.05727   0.15373
                          21        22        23        24        25
                           V         V         V         V         V
     Eigenvalues --     1.85950   1.95612   2.06821   2.26844   2.35670
   1 1   N  1S         -0.00001  -0.02951  -0.06859  -0.00001  -0.00000
   2        2S          0.00021  -0.53275  -0.31184   0.00006   0.00009
   3        2PX         0.01030  -0.10987   0.13138   0.00572  -0.03704
   4        2PY        -0.04078  -0.04711  -0.05611  -0.02263   0.14796
   5        2PZ         0.05335  -0.01499  -0.06769   0.02969  -0.19461
   6        3S         -0.00023   1.36173   1.31737  -0.00005  -0.00021
   7        3PX        -0.02829   0.33578   0.10348  -0.06338   0.05747
   8        3PY         0.11108   0.35096   0.33412   0.25254  -0.23000
   9        3PZ        -0.14537   0.20314   0.23432  -0.33200   0.30253
  10        4XX        -0.05153   0.08624  -0.73076  -0.00576  -0.05858
  11        4YY        -0.03690  -0.14545   0.09930   0.02104  -0.61694
  12        4ZZ         0.08839  -0.04471   0.26891  -0.01537   0.67548
  13        4XY         0.12471   0.00165  -0.32956   0.00955   0.22432
  14        4XZ        -0.14592   0.00353  -0.00143  -0.01814  -0.10331
  15        4YZ        -0.01092  -0.21224  -0.20358  -0.00911   0.17179
  16 2   H  1S          0.00312  -0.28317  -0.47726   0.15256  -0.50175
  17        2S          0.05369  -0.13916  -0.08907   0.06986   0.18837
  18        3PX        -0.22724   0.14828  -0.05650   0.22694   0.12701
  19        3PY         0.05118  -0.04634  -0.06339  -0.65457  -0.05115
  20        3PZ        -0.01054  -0.02800  -0.15373   0.07168  -0.34472
  21 3   H  1S          0.00010  -0.00993   0.07813   0.00018  -0.00005
  22        2S          0.00034  -0.70225  -0.72571  -0.00005   0.00040
  23        3PX         0.07285   0.06275   0.28412  -0.01541  -0.01844
  24        3PY        -0.29111  -0.34924  -0.01689   0.06146   0.07342
  25        3PZ         0.38159  -0.27844  -0.06691  -0.08081  -0.09667
  26 4   H  1S         -0.00318  -0.28322  -0.47720  -0.15270   0.50181
  27        2S         -0.05390  -0.13904  -0.08907  -0.06982  -0.18841
  28        3PX         0.20605   0.13934  -0.02890  -0.08243  -0.19339
  29        3PY         0.03628  -0.01300  -0.17286   0.07730   0.31645
  30        3PZ        -0.10450  -0.07158  -0.00983   0.68730  -0.00414
  31 5   H  1S         -0.00034   0.16780  -0.20873   0.00000   0.00010
  32        2S          0.00014   0.12922   0.45516   0.00006  -0.00028
  33        3PX         0.10330   0.35726  -0.33499   0.04832   0.00535
  34        3PY        -0.41558  -0.46195  -0.10842  -0.19399  -0.02151
  35        3PZ         0.54414  -0.42039  -0.01931   0.25509   0.02837
                          26        27        28        29        30
                           V         V         V         V         V
     Eigenvalues --     2.43963   2.48321   2.69244   2.88832   2.94439
   1 1   N  1S         -0.00001   0.00191  -0.04803   0.00004  -0.04272
   2        2S         -0.00023   0.12304   0.05054   0.00070  -0.20063
   3        2PX        -0.00106   0.03173   0.00693  -0.01824   0.03946
   4        2PY         0.00396  -0.05219   0.07864   0.07264   0.06820
   5        2PZ        -0.00500  -0.04574   0.05871  -0.09567   0.04403
   6        3S          0.00062  -0.27944   0.59836  -0.00194   1.02131
   7        3PX        -0.03235  -0.49365   0.09828   0.03698   0.34936
   8        3PY         0.13164   0.07346  -0.10426  -0.15371   0.40632
   9        3PZ        -0.17347   0.14980  -0.09844   0.20057   0.24301
  10        4XX         0.09325  -0.12485   0.43582   0.19196   0.12045
  11        4YY        -0.24228  -0.00179  -0.39046  -0.09178   0.08160
  12        4ZZ         0.14914   0.06166  -0.25229  -0.10041  -0.25688
  13        4XY        -0.17836  -0.06833  -0.35898  -0.43099   0.17041
  14        4XZ         0.29666   0.00453  -0.44588   0.57062  -0.04649
  15        4YZ         0.11822  -0.10226   0.02669   0.11311   0.64350
  16 2   H  1S         -0.02429  -0.04283   0.06352  -0.00379  -0.12552
  17        2S          0.11506   0.00222  -0.09053  -0.05532  -0.21962
  18        3PX        -0.43640   0.44161   0.45633  -0.45941  -0.11316
  19        3PY        -0.33304   0.08929   0.05542  -0.01425  -0.66496
  20        3PZ        -0.02451  -0.07133   0.14253  -0.10693   0.11991
  21 3   H  1S         -0.00073   0.34462  -0.46953   0.00071  -0.27002
  22        2S         -0.00054   0.25132  -0.50048   0.00090  -0.45563
  23        3PX         0.07243  -0.04532   0.19497  -0.10880   0.21752
  24        3PY        -0.28844  -0.44699   0.11703   0.43563  -0.34988
  25        3PZ         0.37980  -0.33081   0.05221  -0.56959  -0.30962
  26 4   H  1S          0.02456  -0.04285   0.06333   0.00437  -0.12565
  27        2S         -0.11518   0.00219  -0.09050   0.05602  -0.21934
  28        3PX         0.47044   0.45551   0.41047   0.41889  -0.25419
  29        3PY         0.19607   0.03762   0.23120   0.18784  -0.09523
  30        3PZ         0.20476  -0.00288  -0.08918  -0.11935  -0.62879
  31 5   H  1S         -0.00019   0.03665  -0.01782  -0.00013   0.04672
  32        2S          0.00042  -0.13511   0.40110  -0.00028   0.18359
  33        3PX        -0.07821   0.03105  -0.52111   0.06136  -0.22233
  34        3PY         0.31202   0.51994  -0.22270  -0.24467   0.08283
  35        3PZ        -0.41104   0.38929  -0.07086   0.32035   0.10619
                          31        32        33        34        35
                           V         V         V         V         V
     Eigenvalues --     3.01623   3.32813   3.51198   3.82644   4.18625
   1 1   N  1S         -0.08353  -0.18698  -0.00001  -0.31831  -0.29283
   2        2S         -0.02322   0.70366   0.00002   0.61652   0.65647
   3        2PX         0.01317  -0.08896   0.11802   0.13734  -0.20713
   4        2PY         0.12875   0.34677  -0.47112  -0.31871  -0.14497
   5        2PZ         0.09524   0.28072   0.61945  -0.26858  -0.07076
   6        3S          1.27802   1.52131   0.00005   1.92266   2.02559
   7        3PX         0.71358  -0.33085   0.14923   0.55584   0.04254
   8        3PY         0.03093   0.43872  -0.59566  -0.08438   0.18630
   9        3PZ        -0.11207   0.39656   0.78327  -0.17034   0.13369
  10        4XX         0.18951  -1.00774  -0.04682  -0.44482  -1.36710
  11        4YY        -0.32304  -0.08772  -1.05872  -1.43552  -0.95731
  12        4ZZ        -0.14675   0.03350   1.10538  -1.50350  -1.02901
  13        4XY         0.25194  -0.29659   0.26109   0.11801   0.10720
  14        4XZ         0.20618   0.02207  -0.02046  -0.17078   0.15497
  15        4YZ        -0.55195  -0.12567   0.31841   0.14653   0.04755
  16 2   H  1S         -0.12118  -0.52552  -0.88949   0.50535   0.14179
  17        2S         -0.14125  -0.54545  -0.56151  -0.12982  -0.32043
  18        3PX        -0.39498   0.08856  -0.04183  -0.06016  -0.02232
  19        3PY         0.36079  -0.07315   0.03987  -0.00030  -0.04060
  20        3PZ         0.28815   0.80290   1.03042  -0.57287  -0.22508
  21 3   H  1S         -0.41797   0.34707  -0.00001   0.14335  -0.21492
  22        2S         -0.93362   0.27850  -0.00001  -0.79811  -0.51940
  23        3PX         0.29768   0.05847  -0.02254   0.82076  -1.20667
  24        3PY        -0.39478   0.15692   0.09033   0.17129  -0.28871
  25        3PZ        -0.35855   0.10899  -0.11876  -0.02550   0.00940
  26 4   H  1S         -0.12133  -0.52538   0.88959   0.50515   0.14174
  27        2S         -0.14095  -0.54556   0.56153  -0.12995  -0.32023
  28        3PX        -0.37955  -0.11820   0.27593   0.07748   0.02471
  29        3PY         0.30331   0.75129  -0.97459  -0.55042  -0.22752
  30        3PZ         0.36401  -0.28135   0.19855   0.15070   0.02070
  31 5   H  1S          0.06753  -0.15109   0.00002  -0.31561   0.53706
  32        2S          0.40577  -0.17065  -0.00004   0.20205   0.25992
  33        3PX        -0.35248   0.40283   0.00407   0.55975  -0.75984
  34        3PY         0.06855   0.06729  -0.01623   0.17341  -0.30979
  35        3PZ         0.11959  -0.02536   0.02134   0.02583  -0.09195
     Beta Molecular Orbital Coefficients:
                           1         2         3         4         5
                           O         O         O         O         O
     Eigenvalues --   -14.45895  -0.93305  -0.55024  -0.53355  -0.37235
   1 1   N  1S          0.99331  -0.19625  -0.00000   0.00566  -0.09422
   2        2S          0.03255   0.40503   0.00001  -0.01741   0.21068
   3        2PX         0.00010   0.01370   0.07155   0.26796  -0.09919
   4        2PY         0.00126   0.08906  -0.28553  -0.15274  -0.37866
   5        2PZ         0.00094   0.06514   0.37544  -0.16731  -0.26906
   6        3S          0.00198   0.43017   0.00003  -0.01318   0.41040
   7        3PX        -0.00027   0.02007   0.03571   0.14287  -0.10759
   8        3PY        -0.00032   0.04154  -0.14246  -0.07717  -0.29613
   9        3PZ        -0.00019   0.02778   0.18731  -0.08595  -0.20470
  10        4XX        -0.00746  -0.01228   0.00040   0.02598  -0.00259
  11        4YY        -0.00664  -0.00277  -0.02903  -0.01185  -0.01751
  12        4ZZ        -0.00657  -0.00183   0.02863  -0.01087  -0.00619
  13        4XY        -0.00019  -0.00365   0.00328   0.00983  -0.00952
  14        4XZ         0.00006  -0.00048   0.00435   0.00036  -0.00573
  15        4YZ        -0.00008  -0.00012   0.00947  -0.00667  -0.01732
  16 2   H  1S         -0.00009   0.15856   0.24860  -0.11368  -0.09154
  17        2S         -0.00011   0.02563   0.17415  -0.07715  -0.10356
  18        3PX         0.00002  -0.00000   0.00234   0.00819  -0.00358
  19        3PY        -0.00002   0.00225  -0.00681  -0.00511  -0.01262
  20        3PZ         0.00044  -0.01842  -0.00824   0.00473  -0.00226
  21 3   H  1S          0.00034   0.09466   0.00004   0.30086  -0.08550
  22        2S          0.00003   0.01048   0.00000   0.26987  -0.03671
  23        3PX        -0.00021  -0.01182   0.00140  -0.00164  -0.01341
  24        3PY         0.00003   0.00219  -0.00559   0.00372  -0.01159
  25        3PZ         0.00006   0.00393   0.00734   0.00316  -0.00625
  26 4   H  1S         -0.00009   0.15858  -0.24868  -0.11362  -0.09156
  27        2S         -0.00011   0.02564  -0.17419  -0.07709  -0.10356
  28        3PX        -0.00009   0.00475  -0.00296   0.00579  -0.00515
  29        3PY         0.00041  -0.01672   0.00929   0.00449  -0.00635
  30        3PZ        -0.00013   0.00652   0.00499  -0.00788  -0.01051
  31 5   H  1S         -0.00001   0.02770   0.00004   0.17184  -0.12479
  32        2S          0.00000   0.02030   0.00006   0.13268  -0.20843
  33        3PX         0.00001  -0.00404   0.00019  -0.01371   0.00756
  34        3PY        -0.00000  -0.00129  -0.00075  -0.00382   0.00014
  35        3PZ        -0.00000  -0.00022   0.00099  -0.00033  -0.00131
                           6         7         8         9        10
                           V         V         V         V         V
     Eigenvalues --    -0.03199   0.17900   0.24263   0.31605   0.73434
   1 1   N  1S          0.02033  -0.10971   0.00002   0.05765   0.01833
   2        2S         -0.03859   0.14694  -0.00001  -0.08054  -0.02484
   3        2PX        -0.44689  -0.08976   0.06301  -0.25204   0.06413
   4        2PY        -0.10691   0.19525  -0.25171   0.10329   0.49137
   5        2PZ         0.00378   0.16561   0.33101   0.12657   0.36272
   6        3S         -0.17336   1.58136  -0.00031  -0.78559  -0.49296
   7        3PX        -0.44151  -0.08932   0.14692  -0.86349  -0.17285
   8        3PY        -0.13434   0.48108  -0.58717   0.12477  -0.61257
   9        3PZ        -0.01809   0.38294   0.77209   0.25908  -0.43666
  10        4XX        -0.00143  -0.03119   0.00201   0.02705  -0.10717
  11        4YY        -0.00338  -0.02581  -0.00364   0.00855   0.00669
  12        4ZZ         0.00215  -0.03028   0.00165   0.01033   0.00403
  13        4XY        -0.01351  -0.00098  -0.00410  -0.01700  -0.00181
  14        4XZ        -0.00952  -0.00215   0.00626  -0.01885   0.02376
  15        4YZ        -0.00214   0.01051   0.00205   0.01049  -0.00035
  16 2   H  1S          0.00262  -0.07604  -0.10110  -0.01570   0.16488
  17        2S          0.08651  -1.15632  -1.38192  -0.24590  -0.00544
  18        3PX        -0.01432  -0.00388   0.00099  -0.00908   0.03032
  19        3PY        -0.00313   0.00175  -0.00703   0.00331   0.00359
  20        3PZ         0.00030  -0.01071  -0.00578   0.00297  -0.04288
  21 3   H  1S          0.00241   0.00929   0.00004   0.28602  -0.66974
  22        2S         -0.01349  -0.22928   0.00044   2.59378   1.19228
  23        3PX         0.02391   0.00485   0.00069   0.00870  -0.01822
  24        3PY         0.00068   0.00233  -0.00279  -0.00193  -0.03218
  25        3PZ        -0.00405   0.00085   0.00366  -0.00316  -0.02127
  26 4   H  1S          0.00266  -0.07600   0.10112  -0.01597   0.16138
  27        2S          0.08653  -1.15605   1.38206  -0.24651  -0.00483
  28        3PX        -0.01431  -0.00087  -0.00104  -0.00875   0.03972
  29        3PY        -0.00318  -0.01028   0.00727   0.00211  -0.03393
  30        3PZ         0.00036   0.00512   0.00548   0.00454   0.00631
  31 5   H  1S          0.23907   0.06723   0.00001   0.02613  -0.42641
  32        2S          0.60152   0.23628  -0.00028  -1.81054   0.02933
  33        3PX        -0.00513  -0.00143  -0.00020  -0.01170   0.06859
  34        3PY        -0.00304  -0.00101   0.00081  -0.01359  -0.00193
  35        3PZ        -0.00137  -0.00051  -0.00107  -0.00817  -0.01456
                          11        12        13        14        15
                           V         V         V         V         V
     Eigenvalues --     0.74648   0.81699   0.86651   0.95414   0.98219
   1 1   N  1S          0.00007   0.01348   0.03060  -0.00001   0.02107
   2        2S         -0.00040   0.06917  -0.23546   0.00010  -0.39180
   3        2PX        -0.05250  -0.76181   0.20880  -0.13287   0.55508
   4        2PY         0.21140  -0.36355   0.20860   0.52978  -0.43120
   5        2PZ        -0.27473  -0.13132   0.11899  -0.69638  -0.43406
   6        3S         -0.00096  -0.14351   0.28622  -0.00017   0.72611
   7        3PX         0.15910   0.95751   0.11390   0.22721  -1.19963
   8        3PY        -0.63850   0.24465  -0.49467  -0.90594   0.76491
   9        3PZ         0.83549   0.00368  -0.39833   1.19093   0.81120
  10        4XX         0.01267  -0.05837  -0.11206  -0.01075  -0.13538
  11        4YY         0.11793   0.08966   0.00286  -0.16628   0.02172
  12        4ZZ        -0.13105   0.11512   0.04267   0.17703   0.05394
  13        4XY        -0.04703  -0.03087  -0.04058   0.04888  -0.05781
  14        4XZ         0.02501   0.02226   0.01361  -0.01315   0.00391
  15        4YZ        -0.03208  -0.04677  -0.06884   0.04853  -0.04242
  16 2   H  1S         -0.66112   0.34141   0.50260   0.41205   0.33439
  17        2S          0.15834  -0.21232  -0.11321  -1.37110  -1.07710
  18        3PX         0.00946   0.01071   0.00272  -0.00460   0.01160
  19        3PY        -0.02891  -0.02635  -0.03737   0.02248  -0.01224
  20        3PZ         0.00435   0.04482   0.03367   0.14021   0.10922
  21 3   H  1S         -0.00144  -0.30118   0.14697  -0.00005  -0.38217
  22        2S          0.00293   0.17572  -0.48030  -0.00023   1.94810
  23        3PX         0.00974   0.09029   0.09451  -0.00054  -0.06857
  24        3PY        -0.03913  -0.01231   0.00784   0.00219  -0.03924
  25        3PZ         0.05122  -0.02658  -0.01196  -0.00286  -0.01687
  26 4   H  1S          0.66232   0.34156   0.50203  -0.41230   0.33454
  27        2S         -0.15833  -0.21252  -0.11298   1.37160  -1.07653
  28        3PX        -0.00264  -0.00507  -0.01204   0.03346  -0.01682
  29        3PY         0.00217   0.03667   0.02156  -0.13768   0.10142
  30        3PZ         0.03055  -0.03804  -0.04391   0.01124  -0.04028
  31 5   H  1S         -0.00095  -0.02334   0.83549   0.00004  -0.21172
  32        2S         -0.00032  -0.17982  -0.50733   0.00002  -0.50672
  33        3PX         0.00524   0.00844   0.01239   0.00160   0.03302
  34        3PY        -0.02053   0.00887  -0.01155  -0.00648  -0.01376
  35        3PZ         0.02690   0.00516  -0.01119   0.00851  -0.01680
                          16        17        18        19        20
                           V         V         V         V         V
     Eigenvalues --     1.04695   1.24916   1.48933   1.50372   1.79879
   1 1   N  1S         -0.02085  -0.08221   0.00001   0.00223  -0.03360
   2        2S          0.76018  -1.34644  -0.00012  -0.06203  -0.58322
   3        2PX         0.19197  -0.19868   0.00510  -0.02775  -0.13365
   4        2PY        -0.07733  -0.06310  -0.02071  -0.01917   0.00372
   5        2PZ        -0.09547  -0.01002   0.02690  -0.00943   0.02847
   6        3S         -1.76723   3.50119   0.00019   0.15761   1.42370
   7        3PX        -0.48313   0.57568  -0.02563   0.27544   0.47985
   8        3PY         0.16865   0.45988   0.10515  -0.12564   0.30916
   9        3PZ         0.22071   0.23973  -0.13900  -0.14721   0.14316
  10        4XX         0.02090  -0.28818   0.16531  -0.13172   0.10508
  11        4YY         0.15037  -0.17728  -0.18854   0.14966  -0.31427
  12        4ZZ         0.10889  -0.30633   0.02328  -0.00870  -0.02312
  13        4XY         0.03394   0.18772  -0.35617  -0.26269  -0.49015
  14        4XZ         0.03813   0.12274   0.50395  -0.26356  -0.37852
  15        4YZ         0.05760   0.14194   0.13556   0.53645  -0.25457
  16 2   H  1S         -0.29845  -0.32432   0.04429   0.06804  -0.26709
  17        2S          0.29032  -0.62642   0.04188   0.05452  -0.20416
  18        3PX         0.03142   0.07126   0.26297  -0.11329  -0.18301
  19        3PY         0.03180   0.08362   0.09564   0.27468  -0.12362
  20        3PZ        -0.04315   0.00132  -0.00056   0.01448  -0.02197
  21 3   H  1S         -0.78202  -0.33779  -0.00004   0.06429  -0.36085
  22        2S          2.24879  -0.87090  -0.00079  -0.50620  -0.26985
  23        3PX         0.04647   0.09927   0.04753   0.00329  -0.12069
  24        3PY         0.03975   0.14668  -0.19113  -0.20476  -0.01859
  25        3PZ         0.02140   0.09277   0.24917  -0.15793   0.01006
  26 4   H  1S         -0.29793  -0.32441  -0.04382   0.06835  -0.26719
  27        2S          0.28980  -0.62653  -0.04167   0.05489  -0.20438
  28        3PX         0.04598   0.08268  -0.26903  -0.05989  -0.19079
  29        3PY        -0.02595   0.03776  -0.07323   0.07188  -0.08840
  30        3PZ         0.03288   0.06160  -0.02581   0.28220  -0.06842
  31 5   H  1S          0.72392   0.24931   0.00034   0.06799   0.29623
  32        2S         -1.55392   0.07496   0.00012   0.19698  -0.12162
  33        3PX         0.08307   0.00561   0.01781   0.04683   0.13789
  34        3PY         0.01829   0.09653  -0.07094  -0.06018   0.20504
  35        3PZ        -0.00192   0.07252   0.09256  -0.05519   0.13144
                          21        22        23        24        25
                           V         V         V         V         V
     Eigenvalues --     1.89798   1.99649   2.10817   2.27397   2.36289
   1 1   N  1S          0.00006  -0.03454  -0.06118  -0.00001  -0.00000
   2        2S          0.00087  -0.52608  -0.27332   0.00007   0.00012
   3        2PX         0.01019  -0.09221   0.14522   0.00618  -0.03771
   4        2PY        -0.04030  -0.05370  -0.05593  -0.02439   0.15061
   5        2PZ         0.05276  -0.02338  -0.07016   0.03200  -0.19806
   6        3S         -0.00221   1.40491   1.16420  -0.00004  -0.00023
   7        3PX        -0.02840   0.30954   0.07149  -0.06704   0.05687
   8        3PY         0.10881   0.37083   0.29470   0.26707  -0.22750
   9        3PZ        -0.14311   0.22323   0.21051  -0.35109   0.29918
  10        4XX        -0.04934   0.02315  -0.73638  -0.00322  -0.05674
  11        4YY        -0.04257  -0.12800   0.12084   0.00338  -0.61880
  12        4ZZ         0.09225  -0.02353   0.27312  -0.00028   0.67552
  13        4XY         0.12156  -0.00939  -0.31705   0.00602   0.22059
  14        4XZ        -0.13903   0.01503   0.00633  -0.00852  -0.09810
  15        4YZ        -0.00786  -0.21899  -0.17519  -0.00230   0.17314
  16 2   H  1S         -0.00108  -0.31032  -0.43317   0.15013  -0.49756
  17        2S          0.05687  -0.14064  -0.07548   0.08075   0.18945
  18        3PX        -0.25374   0.16723  -0.07099   0.19352   0.11586
  19        3PY         0.06352  -0.04338  -0.05492  -0.67252  -0.05601
  20        3PZ        -0.01198  -0.04026  -0.15411   0.07071  -0.34815
  21 3   H  1S          0.00049   0.01400   0.09254   0.00020  -0.00008
  22        2S          0.00111  -0.74123  -0.65609  -0.00005   0.00041
  23        3PX         0.07872   0.09127   0.29031  -0.00590  -0.01715
  24        3PY        -0.31517  -0.38616   0.00701   0.02360   0.06832
  25        3PZ         0.41318  -0.31208  -0.04958  -0.03100  -0.08994
  26 4   H  1S          0.00190  -0.31038  -0.43292  -0.15031   0.49770
  27        2S         -0.05663  -0.14051  -0.07550  -0.08071  -0.18952
  28        3PX         0.22930   0.16079  -0.04091  -0.04755  -0.18271
  29        3PY         0.03921  -0.02029  -0.17339   0.08927   0.32316
  30        3PZ        -0.12263  -0.07021   0.00130   0.69610  -0.00304
  31 5   H  1S         -0.00035   0.15523  -0.24061  -0.00005   0.00010
  32        2S         -0.00018   0.16242   0.44456   0.00009  -0.00028
  33        3PX         0.09587   0.31677  -0.35472   0.04641   0.00474
  34        3PY        -0.38526  -0.44613  -0.07416  -0.18653  -0.01892
  35        3PZ         0.50417  -0.40060   0.01104   0.24534   0.02499
                          26        27        28        29        30
                           V         V         V         V         V
     Eigenvalues --     2.46162   2.51029   2.72455   2.90682   2.95148
   1 1   N  1S         -0.00001   0.00147  -0.04768   0.00001  -0.03833
   2        2S         -0.00020   0.13370   0.06738   0.00062  -0.18072
   3        2PX        -0.00131   0.03045   0.00530  -0.01788   0.04043
   4        2PY         0.00496  -0.04893   0.08051   0.07133   0.06383
   5        2PZ        -0.00635  -0.04303   0.06044  -0.09387   0.04059
   6        3S          0.00053  -0.29273   0.56164  -0.00137   0.91771
   7        3PX        -0.02802  -0.49485   0.08048   0.03586   0.27857
   8        3PY         0.11348   0.05532  -0.10674  -0.14774   0.40120
   9        3PZ        -0.14944   0.13636  -0.09697   0.19289   0.25247
  10        4XX         0.09914  -0.10908   0.41885   0.19335   0.09957
  11        4YY        -0.23083  -0.01762  -0.37967  -0.09023   0.10339
  12        4ZZ         0.13181   0.05144  -0.23858  -0.10340  -0.24829
  13        4XY        -0.19389  -0.09070  -0.37693  -0.43398   0.14417
  14        4XZ         0.31293  -0.02024  -0.45370   0.57422  -0.06781
  15        4YZ         0.11715  -0.09578   0.03133   0.11313   0.69020
  16 2   H  1S         -0.02442  -0.02850   0.05807   0.00059  -0.11664
  17        2S          0.10444   0.00162  -0.08732  -0.05403  -0.21200
  18        3PX        -0.44249   0.45038   0.45023  -0.45377  -0.07117
  19        3PY        -0.29045   0.09292   0.05033  -0.01712  -0.69100
  20        3PZ        -0.02455  -0.06729   0.14619  -0.10577   0.10579
  21 3   H  1S         -0.00059   0.31176  -0.44836   0.00057  -0.23424
  22        2S         -0.00043   0.26060  -0.46736   0.00056  -0.37043
  23        3PX         0.06857  -0.05239   0.19414  -0.10723   0.19451
  24        3PY        -0.27341  -0.41842   0.15609   0.42988  -0.30892
  25        3PZ         0.35970  -0.30805   0.08213  -0.56251  -0.27366
  26 4   H  1S          0.02457  -0.02854   0.05785  -0.00011  -0.11676
  27        2S         -0.10455   0.00168  -0.08731   0.05456  -0.21177
  28        3PX         0.46904   0.46314   0.40295   0.41379  -0.21570
  29        3PY         0.18516   0.04387   0.23213   0.18662  -0.10853
  30        3PZ         0.16317  -0.00268  -0.09342  -0.11510  -0.65975
  31 5   H  1S         -0.00017   0.03921  -0.03522  -0.00012   0.03715
  32        2S          0.00038  -0.12776   0.38843  -0.00017   0.15006
  33        3PX        -0.08630  -0.01074  -0.49899   0.06448  -0.19981
  34        3PY         0.34461   0.53926  -0.24683  -0.25718   0.08035
  35        3PZ        -0.45355   0.41211  -0.09326   0.33695   0.09993
                          31        32        33        34        35
                           V         V         V         V         V
     Eigenvalues --     3.03055   3.34509   3.51919   3.85284   4.21604
   1 1   N  1S         -0.09141  -0.17582  -0.00005  -0.32576  -0.28943
   2        2S         -0.00844   0.68841   0.00013   0.64834   0.65283
   3        2PX         0.01936  -0.09241   0.11853   0.13585  -0.20911
   4        2PY         0.14730   0.35077  -0.47311  -0.31238  -0.14065
   5        2PZ         0.10822   0.28434   0.62206  -0.26357  -0.06709
   6        3S          1.37169   1.42700   0.00032   1.96609   2.00573
   7        3PX         0.72222  -0.36229   0.14899   0.54525   0.03953
   8        3PY         0.06558   0.43637  -0.59461  -0.07354   0.18652
   9        3PZ        -0.08748   0.40066   0.78193  -0.16024   0.13449
  10        4XX         0.19415  -1.01086  -0.04666  -0.47968  -1.36475
  11        4YY        -0.32189  -0.04037  -1.06101  -1.44816  -0.94067
  12        4ZZ        -0.16917   0.08149   1.10714  -1.51442  -1.01073
  13        4XY         0.25248  -0.30412   0.26083   0.11428   0.10379
  14        4XZ         0.19219   0.02792  -0.01955  -0.16772   0.15625
  15        4YZ        -0.49836  -0.12610   0.31921   0.14309   0.04536
  16 2   H  1S         -0.13958  -0.53534  -0.89065   0.49575   0.13465
  17        2S         -0.16913  -0.53378  -0.55986  -0.14379  -0.31859
  18        3PX        -0.38563   0.09348  -0.04219  -0.05872  -0.02176
  19        3PY         0.30394  -0.07335   0.03966  -0.00148  -0.03989
  20        3PZ         0.32141   0.80443   1.02898  -0.55680  -0.21616
  21 3   H  1S         -0.43986   0.36160   0.00005   0.14787  -0.21851
  22        2S         -0.95792   0.32661  -0.00004  -0.79189  -0.51454
  23        3PX         0.32132   0.03059  -0.02240   0.80525  -1.21200
  24        3PY        -0.40888   0.15997   0.09023   0.16863  -0.28810
  25        3PZ        -0.37350   0.11665  -0.11857  -0.02446   0.01078
  26 4   H  1S         -0.13975  -0.53536   0.89076   0.49536   0.13465
  27        2S         -0.16885  -0.53398   0.55977  -0.14404  -0.31836
  28        3PX        -0.38883  -0.11395   0.27598   0.07480   0.02328
  29        3PY         0.32009   0.75370  -0.97307  -0.53517  -0.21884
  30        3PZ         0.30037  -0.28311   0.19830   0.14539   0.01911
  31 5   H  1S          0.06351  -0.14624  -0.00004  -0.31320   0.54248
  32        2S          0.42149  -0.19017  -0.00005   0.19964   0.25876
  33        3PX        -0.38130   0.41123   0.00432   0.56277  -0.77181
  34        3PY         0.07678   0.06583  -0.01671   0.17351  -0.31546
  35        3PZ         0.13128  -0.02812   0.02202   0.02529  -0.09398
     Alpha Density Matrix:
                           1         2         3         4         5
   1 1   N  1S          1.03439
   2        2S         -0.07017   0.22434
   3        2PX        -0.00188   0.00361   0.37012
   4        2PY         0.01515  -0.03475   0.03870   0.28417
   5        2PZ         0.01187  -0.02710   0.00518   0.02415   0.26011
   6        3S         -0.12056   0.26737   0.03854  -0.08774  -0.07404
   7        3PX         0.00011  -0.00140   0.27169   0.05997   0.01674
   8        3PY         0.01446  -0.03521   0.05029   0.18263   0.03799
   9        3PZ         0.01098  -0.02651   0.00937   0.03615   0.14578
  10        4XX        -0.00843   0.00133   0.00751  -0.00676  -0.00613
  11        4YY        -0.00401  -0.00829  -0.00335   0.01870  -0.00444
  12        4ZZ        -0.00489  -0.00621  -0.00332  -0.00483   0.01582
  13        4XY         0.00017  -0.00049   0.01300   0.00286   0.00147
  14        4XZ         0.00072  -0.00157   0.00735   0.00245   0.00387
  15        4YZ         0.00150  -0.00357   0.00190   0.00551   0.01020
  16 2   H  1S         -0.02197   0.04514  -0.00315  -0.00449   0.14838
  17        2S          0.00580  -0.01433  -0.01933  -0.00134   0.10389
  18        3PX         0.00007  -0.00019   0.00955   0.00091   0.00022
  19        3PY         0.00059  -0.00147   0.00105   0.00797   0.00172
  20        3PZ         0.00435  -0.00848  -0.00004   0.00059  -0.00428
  21 3   H  1S         -0.01062   0.02237   0.08489  -0.01025  -0.02397
  22        2S         -0.00136   0.00238   0.02369  -0.04699  -0.04028
  23        3PX         0.00385  -0.00860  -0.01355   0.00106   0.00426
  24        3PY         0.00061  -0.00143   0.00126   0.00551   0.00044
  25        3PZ        -0.00027   0.00054   0.00441   0.00048   0.00414
  26 4   H  1S         -0.02197   0.04514  -0.03883   0.13794  -0.03891
  27        2S          0.00580  -0.01433  -0.04323   0.09402  -0.02150
  28        3PX        -0.00085   0.00156   0.00893   0.00373  -0.00053
  29        3PY         0.00428  -0.00844   0.00325  -0.00210   0.00318
  30        3PZ        -0.00050   0.00069  -0.00052   0.00425   0.00641
  31 5   H  1S          0.01384  -0.03155  -0.06467  -0.00234   0.01053
  32        2S          0.02606  -0.05835  -0.15829   0.01497   0.04153
  33        3PX         0.00018  -0.00029  -0.00274  -0.00015   0.00054
  34        3PY         0.00019  -0.00041  -0.00012   0.00108   0.00034
  35        3PZ         0.00011  -0.00025   0.00056   0.00034   0.00082
                           6         7         8         9        10
   6        3S          0.34949
   7        3PX         0.02292   0.20722
   8        3PY        -0.07195   0.05760   0.12168
   9        3PZ        -0.05907   0.01565   0.03638   0.08409
  10        4XX         0.00327   0.00360  -0.00420  -0.00366   0.00073
  11        4YY        -0.01191  -0.00043   0.01141  -0.00079  -0.00042
  12        4ZZ        -0.00854  -0.00215  -0.00162   0.00851  -0.00028
  13        4XY         0.00001   0.00965   0.00284   0.00120   0.00022
  14        4XZ        -0.00173   0.00587   0.00243   0.00242  -0.00001
  15        4YZ        -0.00643   0.00234   0.00457   0.00618  -0.00031
  16 2   H  1S          0.03016   0.00351   0.00674   0.07926  -0.00319
  17        2S         -0.03562  -0.01085   0.00707   0.05752  -0.00247
  18        3PX         0.00068   0.00701   0.00126   0.00029   0.00019
  19        3PY        -0.00319   0.00170   0.00523   0.00161  -0.00021
  20        3PZ        -0.00922  -0.00017   0.00046  -0.00196   0.00007
  21 3   H  1S          0.01431   0.04405  -0.00292  -0.01062   0.00613
  22        2S          0.00235   0.00042  -0.03049  -0.02328   0.00481
  23        3PX        -0.01401  -0.01055   0.00054   0.00285  -0.00021
  24        3PY        -0.00333   0.00106   0.00363   0.00083  -0.00001
  25        3PZ         0.00013   0.00324   0.00092   0.00237   0.00004
  26 4   H  1S          0.03014  -0.01415   0.07721  -0.01339  -0.00353
  27        2S         -0.03564  -0.02268   0.05425  -0.00451  -0.00270
  28        3PX         0.00225   0.00684   0.00281   0.00001   0.00013
  29        3PY        -0.00947   0.00221  -0.00037   0.00197   0.00005
  30        3PZ        -0.00096   0.00035   0.00308   0.00380  -0.00026
  31 5   H  1S         -0.08511  -0.06995  -0.00261   0.01133   0.00349
  32        2S         -0.14464  -0.14055   0.00568   0.03110   0.00155
  33        3PX         0.00071  -0.00116  -0.00026   0.00009  -0.00025
  34        3PY        -0.00018   0.00035   0.00070   0.00021  -0.00011
  35        3PZ        -0.00027   0.00055   0.00033   0.00047  -0.00003
                          11        12        13        14        15
  11        4YY         0.00171
  12        4ZZ        -0.00045   0.00130
  13        4XY        -0.00004  -0.00006   0.00047
  14        4XZ         0.00000   0.00017   0.00028   0.00022
  15        4YZ         0.00018   0.00056   0.00014   0.00022   0.00050
  16 2   H  1S         -0.00538   0.00813   0.00045   0.00171   0.00497
  17        2S         -0.00211   0.00678  -0.00017   0.00107   0.00389
  18        3PX        -0.00009  -0.00007   0.00034   0.00019   0.00005
  19        3PY         0.00051  -0.00006   0.00008   0.00008   0.00020
  20        3PZ         0.00039  -0.00008  -0.00001  -0.00001  -0.00007
  21 3   H  1S         -0.00259  -0.00296   0.00319   0.00057  -0.00086
  22        2S         -0.00289  -0.00195   0.00070  -0.00068  -0.00205
  23        3PX         0.00038   0.00048  -0.00040  -0.00019   0.00022
  24        3PY         0.00036  -0.00010   0.00009   0.00004   0.00012
  25        3PZ        -0.00016   0.00019   0.00018   0.00013   0.00017
  26 4   H  1S          0.00952  -0.00643  -0.00092  -0.00092   0.00005
  27        2S          0.00786  -0.00296  -0.00109  -0.00069   0.00059
  28        3PX         0.00008  -0.00022   0.00032   0.00017   0.00005
[...]
     Eigenvalues --     7.24067  23.22364  25.34381
           X            0.98837   0.14070   0.05763
           Y            0.03918  -0.60191   0.79761
           Z           -0.14691   0.78607   0.60042
 This molecule is an asymmetric top.
 Rotational symmetry number  1.
 Rotational temperatures (Kelvin)     11.96213     3.72955     3.41755
 Rotational constants (GHZ):         249.25074    77.71138    71.21034
    1 imaginary frequencies ignored.
 Zero-point vibrational energy      86051.9 (Joules/Mol)
                                   20.56691 (Kcal/Mol)
 Vibrational temperatures:   1001.13  1027.52  1619.84  1868.90  2284.44
          (Kelvin)           2840.13  4952.89  5104.46
 
 Zero-point correction=                           0.032775 (Hartree/Particle)
 Thermal correction to Energy=                    0.035891
 Thermal correction to Enthalpy=                  0.036841
 Thermal correction to Gibbs Free Energy=         0.011573
 Sum of electronic and zero-point Energies=            -56.988327
 Sum of electronic and thermal Energies=               -56.985211
 Sum of electronic and thermal Enthalpies=             -56.984261
 Sum of electronic and thermal Free Energies=          -57.009529
 
                     E (Thermal)             CV                S
                      KCal/Mol        Cal/Mol-Kelvin    Cal/Mol-Kelvin
 Total                   22.522              8.105             52.853
 Electronic               0.000              0.000              1.377
 Translational            0.894              2.981             34.643
 Rotational               0.894              2.981             16.125
 Vibrational             20.734              2.144              0.707
                       Q            Log10(Q)             Ln(Q)
 Total Bot       0.512286D-05         -5.290487        -12.181797
 Total V=0       0.492240D+10          9.692177         22.317061
 Vib (Bot)       0.112329D-14        -14.949506        -34.422511
 Vib (V=0)       0.107934D+01          0.033157          0.076348
 Electronic      0.200000D+01          0.301030          0.693147
 Translational   0.305719D+07          6.485323         14.933008
 Rotational      0.745876D+03          2.872666          6.614559
 
                                                          nh3+h to nh2+h2 ts
                                                             IR Spectrum
 
     3   3                                                    1             1         1     1                                        
     5   4                                                    9             5         2     1              76                        
     4   4                                                    7             8         9     2              19                        
     8   2                                                    4             8         9     6              46                        
 
     X   X                                                    X             X         X     X              XX                        
                                                                            X               X              X                         
                                                                                            X              X                         
                                                                                            X              X                         
                                                                                            X                                        
                                                                                            X                                        
                                                                                            X                                        
                                                                                            X                                        
                                                                                            X                                        
                                                                                            X                                        
                                                                                            X                                        
                                                                                            X                                        
                                                                                            X                                        
                                                                                            X                                        
                                                                                            X                                        
                                                                                            X                                        
                                                                                            X                                        
                                                                                            X                                        
                                                                                            X                                        
                                                                                            X                                        
 
 -------------------------------------------------------------------
 Center     Atomic                   Forces (Hartrees/Bohr)
 Number     Number              X              Y              Z
 -------------------------------------------------------------------
      1        7           0.000030472    0.000008244   -0.000006005
      2        1          -0.000011933   -0.000011936    0.000000841
      3        1          -0.000016144    0.000003876    0.000005463
      4        1           0.000001597    0.000001344    0.000000285
      5        1          -0.000003992   -0.000001528   -0.000000584
 -------------------------------------------------------------------
 Cartesian Forces:  Max     0.000030472 RMS     0.000010478
 -----------------------------------------------------------------------------------------------
                       Internal Coordinate Forces (Hartree/Bohr or radian)
  Cent   Atom   N1       Length/X         N2         Alpha/Y        N3         Beta/Z          J
 -----------------------------------------------------------------------------------------------
      1  N 
      2  H        1   0.000001(     1)
      3  H        1  -0.000021(     2)      2  -0.000003(     6)
      4  H        1   0.000001(     3)      3  -0.000003(     7)      2  -0.000002(    10)     0
         X        3   0.000000(     4)      1   0.000001(     8)      4  -0.000000(    11)     0
      5  H        3  -0.000004(     5)      5   0.000001(     9)      1   0.000000(    12)     0
 -----------------------------------------------------------------------------------------------
 Internal  Forces:  Max     0.000020682 RMS     0.000006271
 Force constants in Cartesian coordinates: 
                1             2             3             4             5 
      1  0.888113D-01
      2 -0.927806D-01  0.431487D+00
      3  0.154392D-01 -0.901828D-01  0.501551D+00
      4 -0.298539D-01  0.103372D-01 -0.847951D-02  0.292660D-01
      5  0.134581D-01 -0.357498D-01 -0.283084D-01 -0.107022D-01  0.411523D-01
      6  0.482636D-02  0.242630D-01 -0.420976D+00 -0.632182D-03 -0.143568D-01
      7  0.857834D-01  0.189245D-01 -0.668615D-02 -0.238125D-02 -0.312002D-02
      8  0.172299D-01 -0.182464D-01  0.728603D-02 -0.185626D-03 -0.773318D-03
      9 -0.786479D-02  0.700629D-02 -0.253606D-01  0.196016D-01 -0.344246D-02
     10 -0.445238D-01  0.705328D-01 -0.140143D-01  0.149918D-02 -0.302620D-03
     11  0.955191D-01 -0.379163D+00  0.108638D+00 -0.405675D-03 -0.457066D-02
     12 -0.578460D-02  0.611045D-01 -0.608921D-01 -0.116348D-01  0.441494D-01
     13 -0.100217D+00 -0.701390D-02  0.137408D-01  0.146992D-02  0.666803D-03
     14 -0.334265D-01  0.167226D-02  0.256734D-02  0.956365D-03 -0.585850D-04
     15 -0.661617D-02 -0.219096D-02  0.567758D-02  0.114493D-02  0.195812D-02
                6             7             8             9            10 
      6  0.436817D+00
      7 -0.641378D-02 -0.602628D-01
      8 -0.148449D-02 -0.781515D-02  0.440780D-01
      9 -0.418359D-02  0.129790D-01  0.115825D-02  0.438762D-01
     10  0.643289D-03 -0.560427D-02  0.178985D-01 -0.417090D-02  0.475941D-01
     11 -0.886331D-02 -0.699925D-02 -0.318740D-02  0.439516D-03 -0.896322D-01
     12 -0.129711D-01  0.531888D-03 -0.650308D-02  0.143820D-02  0.172970D-01
     13  0.157632D-02 -0.175351D-01 -0.271277D-01 -0.205449D-01  0.103482D-02
     14  0.441527D-03 -0.990103D-03 -0.218708D-01 -0.516159D-02  0.150354D-02
     15  0.131400D-02 -0.410935D-03 -0.456702D-03 -0.157702D-01  0.244927D-03
               11            12            13            14            15 
     11  0.384573D+00
     12 -0.998543D-01  0.730639D-01
     13  0.151810D-02 -0.409432D-03  0.115247D+00
     14  0.234777D-02  0.110347D-02  0.319567D-01  0.179094D-01
     15 -0.359710D-03 -0.638823D-03  0.563725D-02  0.104925D-02  0.941744D-02
 Force constants in internal coordinates: 
                1             2             3             4             5 
      1  0.436817D+00
      2 -0.425307D-02  0.207872D-01
      3 -0.548508D-02 -0.426928D-02  0.434633D+00
      4  0.000000D+00  0.000000D+00  0.000000D+00  0.000000D+00
      5  0.171988D-02  0.103803D+00  0.172101D-02  0.000000D+00  0.124985D+00
      6  0.118487D-02  0.898583D-02 -0.391643D-02  0.000000D+00 -0.358910D-02
      7 -0.385931D-02  0.885536D-02  0.101750D-02  0.000000D+00 -0.346511D-02
      8 -0.186580D-02  0.142340D-02  0.107666D-04  0.000000D+00  0.454699D-02
      9 -0.196666D-02  0.139202D-02  0.169022D-03  0.000000D+00  0.440475D-02
     10  0.272233D-01  0.415607D-02  0.280041D-01  0.000000D+00 -0.145309D-02
     11  0.645131D-03 -0.466049D-04 -0.652293D-03  0.000000D+00  0.239493D-04
     12  0.529450D-03  0.925046D-03 -0.193753D-02  0.000000D+00  0.347051D-02
                6             7             8             9            10 
      6  0.110920D+00
      7  0.151997D-01  0.110925D+00
      8  0.298323D-02  0.164701D-02  0.240004D-01
      9  0.302733D-02  0.143333D-02  0.247418D-01  0.256566D-01
     10 -0.396523D-01 -0.405171D-01  0.552117D-02  0.583357D-02  0.149639D+00
     11 -0.549543D-03  0.675695D-03 -0.601132D-02 -0.681638D-02 -0.196637D-02
     12  0.590987D-03  0.324659D-02  0.107879D-04 -0.183632D-02 -0.173773D-02
               11            12 
     11  0.405337D-02
     12  0.759616D-02  0.226667D-01
 Leave Link  716 at Sun Sep 15 21:37:22 2024, MaxMem=   268435456 cpu:         0.2
 (Enter /g100_work/pMI24_ChiCa/g09d1/g09d01/d01/build-node-6-2-59348/src/main/l103.exe)

 GradGradGradGradGradGradGradGradGradGradGradGradGradGradGradGradGradGrad
 Berny optimization.
 Search for a saddle point.
 Step number   1 out of a maximum of    2
 All quantities printed in internal units (Hartrees-Bohrs-Radians)
 Swapping is turned off.
 Second derivative matrix not updated -- analytic derivatives used.
 The second derivative matrix:
                          hn2       hn3      hnh3       hn4      hnh4
           hn2          0.43682
           hn3         -0.00425   0.02079
           hnh3         0.00118   0.00899   0.11092
           hn4         -0.00549  -0.00427  -0.00392   0.43463
           hnh4        -0.00386   0.00886   0.01520   0.00102   0.11093
           dih4         0.02722   0.00416  -0.03965   0.02800  -0.04052
           xxh5         0.00000   0.00000  -0.00000   0.00000  -0.00000
           xxhn5       -0.00187   0.00142   0.00298   0.00001   0.00165
           dih5         0.00065  -0.00005  -0.00055  -0.00065   0.00068
           hh6          0.00172   0.10380  -0.00359   0.00172  -0.00347
           hhxx6       -0.00197   0.00139   0.00303   0.00017   0.00143
           dih6         0.00053   0.00093   0.00059  -0.00194   0.00325
                         dih4      xxh5      xxhn5     dih5       hh6
           dih4         0.14964
           xxh5         0.00000  -0.00000
           xxhn5        0.00552   0.00000   0.02400
           dih5        -0.00197  -0.00000  -0.00601   0.00405
           hh6         -0.00145  -0.00000   0.00455   0.00002   0.12499
           hhxx6        0.00583   0.00000   0.02474  -0.00682   0.00440
           dih6        -0.00174  -0.00000   0.00001   0.00760   0.00347
                         hhxx6     dih6
           hhxx6        0.02566
           dih6        -0.00184   0.02267
 ITU=  0
     Eigenvalues ---   -0.04494   0.02145   0.02591   0.08054   0.09573
     Eigenvalues ---    0.18911   0.19191   0.43584   0.441481000.00000
     Eigenvalues --- 1000.000001000.00000
 Eigenvectors required to have negative eigenvalues:
                          hn3       hh6      hnh3      hnh4      dih4
   1                    0.84560  -0.52111  -0.06826  -0.06740  -0.05398
                         hhxx6     dih6       hn4       hn2      xxhn5
   1                    0.02539   0.01857   0.01234   0.01223   0.00000
 Angle between quadratic step and forces= 113.10 degrees.
 Linear search not attempted -- option 19 set.
 Variable       Old X    -DE/DX   Delta X   Delta X   Delta X     New X
                                 (Linear)    (Quad)   (Total)
   hn2        1.93933   0.00000   0.00000   0.00001   0.00001   1.93934
   hn3        2.44606  -0.00002   0.00000   0.00023   0.00023   2.44629
   hnh3       1.74876  -0.00000   0.00000  -0.00007  -0.00007   1.74869
   hn4        1.93934   0.00000   0.00000   0.00001   0.00001   1.93935
   hnh4       1.74871  -0.00000   0.00000  -0.00007  -0.00007   1.74864
   dih4       1.84910  -0.00000   0.00000  -0.00006  -0.00006   1.84904
   xxh5       1.88973   0.00000   0.00000   0.00000   0.00000   1.88973
  xxhn5       1.57080   0.00000   0.00000   0.00000   0.00000   1.57080
   dih5       1.57080  -0.00000   0.00000   0.00000   0.00000   1.57080
   hh6        1.69838  -0.00000   0.00000  -0.00023  -0.00023   1.69815
  hhxx6       1.25637   0.00000   0.00000   0.00008   0.00008   1.25645
   dih6       2.89602   0.00000   0.00000   0.00005   0.00005   2.89607
         Item               Value     Threshold  Converged?
 Maximum Force            0.000021     0.000450     YES
 RMS     Force            0.000007     0.000300     YES
 Maximum Displacement     0.000231     0.001800     YES
 RMS     Displacement     0.000103     0.001200     YES
 Predicted change in Energy= 1.517897D-09
 Optimization completed.
    -- Stationary point found.
                       ----------------------------
                       !   Optimized Parameters   !
                       ! (Angstroms and Degrees)  !
 ----------------------                            ----------------------
 !      Name          Value   Derivative information (Atomic Units)     !
 ------------------------------------------------------------------------
 !       hn2         1.0262   -DE/DX =    0.0                           !
 !       hn3         1.2944   -DE/DX =    0.0                           !
 !      hnh3       100.1965   -DE/DX =    0.0                           !
 !       hn4         1.0263   -DE/DX =    0.0                           !
 !      hnh4       100.1939   -DE/DX =    0.0                           !
 !      dih4       105.9458   -DE/DX =    0.0                           !
 !      xxh5         1.0      -DE/DX =    0.0                           !
 !      xxhn5       90.0      -DE/DX =    0.0                           !
 !      dih5        90.0      -DE/DX =    0.0                           !
 !       hh6         0.8987   -DE/DX =    0.0                           !
 !      hhxx6       71.9849   -DE/DX =    0.0                           !
 !      dih6       165.9299   -DE/DX =    0.0                           !
 ------------------------------------------------------------------------
 GradGradGradGradGradGradGradGradGradGradGradGradGradGradGradGradGradGrad

 Leave Link  103 at Sun Sep 15 21:37:22 2024, MaxMem=   268435456 cpu:         0.1
 (Enter /g100_work/pMI24_ChiCa/g09d1/g09d01/d01/build-node-6-2-59348/src/main/l9999.exe)
 1\1\GINC-R500N003\Freq\UwB97XD\6-31G(d,p)\H4N1(2)\ECABIATI\15-Sep-2024
 \1\\#P Geom=AllCheck Guess=TCheck SCRF=Check GenChk UwB97XD/6-31G(d,p)
  Freq\\nh3+h to nh2+h2 ts\\0,2\N\H,1,hn2\H,1,hn3,2,hnh3\H,1,hn4,3,hnh4
 ,2,dih4,0\X,3,xxh5,1,xxhn5,4,dih5,0\H,3,hh6,5,hhxx6,1,dih6,0\\hn2=1.02
 624824\hn3=1.29439911\hnh3=100.19653949\hn4=1.0262553\hnh4=100.1938740
 5\dih4=105.94581802\hh6=0.8987425\hhxx6=71.98491676\dih6=165.92985545\
 xxh5=1.\xxhn5=90.\dih5=90.\\Version=EM64L-G09RevD.01\HF=-57.0211025\S2
 =0.758169\S2-1=0.\S2A=0.750022\RMSD=4.583e-10\RMSF=1.048e-05\ZeroPoint
 =0.0327755\Thermal=0.0358911\Dipole=-0.0891917,0.5469496,0.4350788\Dip
 oleDeriv=-0.3127814,-0.1347673,-0.0847071,-0.1338349,-0.2417525,-0.003
 6305,-0.084238,-0.0029135,-0.1934521,0.2827054,0.0362496,-0.0185142,0.
 0545274,0.2238888,-0.0817262,-0.0438892,-0.01405,-0.0340062,-0.3017909
 ,0.0398395,0.099691,0.0718328,0.1425073,0.0341426,0.1246816,0.0397531,
 0.0891327,0.297589,0.0471532,0.0130933,0.0423945,-0.0363877,0.0604185,
 0.0488285,-0.0052555,0.2116091,0.0342779,0.0115249,-0.009563,-0.034919
 9,-0.0882559,-0.0092044,-0.0453829,-0.0175341,-0.0732835\Polar=29.0298
 385,1.9318666,9.457098,-1.8509346,-1.0718262,9.9198653\PG=C01 [X(H4N1)
 ]\NImag=1\\0.08881128,-0.09278057,0.43148705,0.01543921,-0.09018282,0.
 50155102,-0.02985387,0.01033716,-0.00847951,0.02926602,0.01345806,-0.0
 3574978,-0.02830836,-0.01070222,0.04115234,0.00482636,0.02426303,-0.42
 097589,-0.00063218,-0.01435675,0.43681660,0.08578338,0.01892453,-0.006
 68615,-0.00238125,-0.00312002,-0.00641378,-0.06026276,0.01722992,-0.01
 824640,0.00728603,-0.00018563,-0.00077332,-0.00148449,-0.00781515,0.04
 407796,-0.00786479,0.00700629,-0.02536058,0.01960161,-0.00344246,-0.00
 418359,0.01297897,0.00115825,0.04387617,-0.04452384,0.07053279,-0.0140
 1431,0.00149918,-0.00030262,0.00064329,-0.00560427,0.01789854,-0.00417
 090,0.04759410,0.09551907,-0.37916313,0.10863781,-0.00040567,-0.004570
 66,-0.00886331,-0.00699925,-0.00318740,0.00043952,-0.08963224,0.384573
 41,-0.00578460,0.06110447,-0.06089213,-0.01163485,0.04414944,-0.012971
 12,0.00053189,-0.00650308,0.00143820,0.01729699,-0.09985431,0.07306387
 ,-0.10021696,-0.00701390,0.01374076,0.00146992,0.00066680,0.00157632,-
 0.01753511,-0.02712768,-0.02054490,0.00103482,0.00151810,-0.00040943,0
 .11524732,-0.03342647,0.00167226,0.00256734,0.00095636,-0.00005858,0.0
 0044153,-0.00099010,-0.02187084,-0.00516159,0.00150354,0.00234777,0.00
 110347,0.03195667,0.01790940,-0.00661617,-0.00219096,0.00567758,0.0011
 4493,0.00195812,0.00131400,-0.00041093,-0.00045670,-0.01577020,0.00024
 493,-0.00035971,-0.00063882,0.00563725,0.00104925,0.00941744\\-0.00003
 047,-0.00000824,0.00000600,0.00001193,0.00001194,-0.00000084,0.0000161
 4,-0.00000388,-0.00000546,-0.00000160,-0.00000134,-0.00000028,0.000003
 99,0.00000153,0.00000058\\\@


 OLD HORSE! OLD HORSE! WHAT BROUGHT YOU HERE?
 FROM SACARAP' TO PORTLAND PIER
 I'VE CARTED STONE THIS MANY A YEAR;
 TILL, KILLED BY BLOWS AND SORE ABUSE,
 THEY SALTED ME DOWN FOR SAILORS' USE.
 THE SAILORS THEY DO ME DESPISE;
 THEY TURN ME OVER AND DAMN MY EYES;
 CUT OFF MY MEAT, AND SCRAPE MY BONES,
 AND PITCH ME OVER TO DAVY JONES.

    SAILORS' COMPLAINT ABOUT THE BEEF
    SERVED ON SHIPBOARD, CIRCA 1835.
 Job cpu time:       0 days  0 hours  0 minutes 38.0 seconds.
 File lengths (MBytes):  RWF=      5 Int=      0 D2E=      0 Chk=      1 Scr=      1
 Normal termination of Gaussian 09 at Sun Sep 15 21:37:22 2024.
