 Entering Gaussian System, Link 0=/g100_work/pMI24_ChiCa/g09d1/g09d01/d01/build-node-6-2-59348/src/main/g09
 Input=geom.com
 Output=geom.log
 Initial command:
 /g100_work/pMI24_ChiCa/g09d1/g09d01/d01/build-node-6-2-59348/src/main/l1.exe "/g100_scratch/userexternal/ecabiati/g16_14399131/Gau-24567.inp" -scrdir="/g100_scratch/userexternal/ecabiati/g16_14399131/"
 Entering Link 1 = /g100_work/pMI24_ChiCa/g09d1/g09d01/d01/build-node-6-2-59348/src/main/l1.exe PID=     24568.
  
 Copyright (c) 1988,1990,1992,1993,1995,1998,2003,2009,2013,
            Gaussian, Inc.  All Rights Reserved.
  
 This is part of the Gaussian(R) 09 program.  It is based on
 the Gaussian(R) 03 system (copyright 2003, Gaussian, Inc.),
 the Gaussian(R) 98 system (copyright 1998, Gaussian, Inc.),
 the Gaussian(R) 94 system (copyright 1995, Gaussian, Inc.),
 the Gaussian 92(TM) system (copyright 1992, Gaussian, Inc.),
 the Gaussian 90(TM) system (copyright 1990, Gaussian, Inc.),
 the Gaussian 88(TM) system (copyright 1988, Gaussian, Inc.),
 the Gaussian 86(TM) system (copyright 1986, Carnegie Mellon
 University), and the Gaussian 82(TM) system (copyright 1983,
 Carnegie Mellon University). Gaussian is a federally registered
 trademark of Gaussian, Inc.
  
 This software contains proprietary and confidential information,
 including trade secrets, belonging to Gaussian, Inc.
  
 This software is provided under written license and may be
 used, copied, transmitted, or stored only in accord with that
 written license.
  
 The following legend is applicable only to US Government
 contracts under FAR:
  
                    RESTRICTED RIGHTS LEGEND
  
 Use, reproduction and disclosure by the US Government is
 subject to restrictions as set forth in subparagraphs (a)
 and (c) of the Commercial Computer Software - Restricted
 Rights clause in FAR 52.227-19.
  
 Gaussian, Inc.
 340 Quinnipiac St., Bldg. 40, Wallingford CT 06492
  
  
 ---------------------------------------------------------------
 Warning -- This program may not be used in any manner that
 competes with the business of Gaussian, Inc. or will provide
 assistance to any competitor of Gaussian, Inc.  The licensee
 of this program is prohibited from giving any competitor of
 Gaussian, Inc. access to this program.  By using this program,
 the user acknowledges that Gaussian, Inc. is engaged in the
 business of creating and licensing software in the field of
 computational chemistry and represents and warrants to the
 licensee that it is not a competitor of Gaussian, Inc. and that
 it will not use this program in any manner prohibited above.
 ---------------------------------------------------------------
  

 Cite this work as:
 Gaussian 09, Revision D.01,
 M. J. Frisch, G. W. Trucks, H. B. Schlegel, G. E. Scuseria, 
 M. A. Robb, J. R. Cheeseman, G. Scalmani, V. Barone, B. Mennucci, 
 G. A. Petersson, H. Nakatsuji, M. Caricato, X. Li, H. P. Hratchian, 
 A. F. Izmaylov, J. Bloino, G. Zheng, J. L. Sonnenberg, M. Hada, 
 M. Ehara, K. Toyota, R. Fukuda, J. Hasegawa, M. Ishida, T. Nakajima, 
 Y. Honda, O. Kitao, H. Nakai, T. Vreven, J. A. Montgomery, Jr., 
 J. E. Peralta, F. Ogliaro, M. Bearpark, J. J. Heyd, E. Brothers, 
 K. N. Kudin, V. N. Staroverov, T. Keith, R. Kobayashi, J. Normand, 
 K. Raghavachari, A. Rendell, J. C. Burant, S. S. Iyengar, J. Tomasi, 
 M. Cossi, N. Rega, J. M. Millam, M. Klene, J. E. Knox, J. B. Cross, 
 V. Bakken, C. Adamo, J. Jaramillo, R. Gomperts, R. E. Stratmann, 
 O. Yazyev, A. J. Austin, R. Cammi, C. Pomelli, J. W. Ochterski, 
 R. L. Martin, K. Morokuma, V. G. Zakrzewski, G. A. Voth, 
 P. Salvador, J. J. Dannenberg, S. Dapprich, A. D. Daniels, 
 O. Farkas, J. B. Foresman, J. V. Ortiz, J. Cioslowski, 
 and D. J. Fox, Gaussian, Inc., Wallingford CT, 2013.
 
 ******************************************
 Gaussian 09:  EM64L-G09RevD.01 24-Apr-2013
                13-Sep-2024 
 ******************************************
 %nproc=24
 Will use up to   24 processors via shared memory.
 %mem=2Gb
 %chk=ts.chk
 ----------------------------------------------------------------------
 #p B3LYP/6-31g(d,p) opt=(Z-Matrix,ts,calcfc) nosym freq temperature=30
 0 pop=full gfinput
 ----------------------------------------------------------------------
 1/5=1,10=4,14=-1,18=40,26=3,38=1,112=300000/1,3;
 2/12=2,15=1,17=6,18=5,29=3,40=1/2;
 3/5=1,6=6,7=101,11=2,16=1,24=10,25=1,30=1,71=2,74=-5,140=1/1,2,3;
 4//1;
 5/5=2,38=5/2;
 8/6=4,10=90,11=11/1;
 11/6=1,8=1,9=11,15=111,16=1,31=1/1,2,10;
 10/6=1,13=1,31=1/2;
 6/7=3,28=1/1;
 7/10=1,18=20,25=1,30=1/1,2,3,16;
 1/5=1,10=4,14=-1,18=40,26=3/3(2);
 2/15=1,29=3/2;
 99//99;
 2/15=1,29=3/2;
 3/5=1,6=6,7=101,11=2,16=1,25=1,30=1,71=1,74=-5/1,2,3;
 4/5=5,16=3,69=1/1;
 5/5=2,38=5/2;
 7/30=1/1,2,3,16;
 1/5=1,14=-1,18=40,26=3/3(-5);
 2/15=1,29=3/2;
 6/7=3,19=2,28=1/1;
 99/9=1/99;
 Leave Link    1 at Fri Sep 13 21:48:57 2024, MaxMem=   268435456 cpu:         0.2
 (Enter /g100_work/pMI24_ChiCa/g09d1/g09d01/d01/build-node-6-2-59348/src/main/l101.exe)
 ------------------
 ch4+h to ch3+h2 ts
 ------------------
 Symbolic Z-matrix:
 Charge =  0 Multiplicity = 2
 c
 h                    1    hc2
 h                    1    hc3      2    hch3
 h                    1    hc4      2    hch4     3    dih4     0
 h                    1    hc5      2    hch5     3    dih5     0
 xx                   5    xxh6     1    xxhc6    4    dih6     0
 h                    5    hh7      6    hhxx7    1    dih7     0
       Variables:
  hc2                   1.088                    
  hc3                   1.088                    
  hch3                114.2253                   
  hc4                   1.088                    
  hch4                114.2137                   
  dih4                134.0938                   
  hc5                   1.3607                   
  hch5                104.1445                   
  dih5               -112.9416                   
  xxh6                  1.      -1        0.     
  xxhc6                89.9651  -1        0.     
  dih6                 70.1542  -1        0.     
  hh7                   0.9061                   
  hhxx7                90.026                    
  dih7                179.9285                   
 
 NAtoms=      6 NQM=        6 NQMF=       0 NMMI=      0 NMMIF=      0
                NMic=       0 NMicF=      0.
                    Isotopes and Nuclear Properties:
 (Nuclear quadrupole moments (NQMom) in fm**2, nuclear magnetic moments (NMagM)
  in nuclear magnetons)

  Atom         1           2           3           4           5           6
 IAtWgt=          12           1           1           1           1           1
 AtmWgt=  12.0000000   1.0078250   1.0078250   1.0078250   1.0078250   1.0078250
 NucSpn=           0           1           1           1           1           1
 AtZEff=   0.0000000   0.0000000   0.0000000   0.0000000   0.0000000   0.0000000
 NQMom=    0.0000000   0.0000000   0.0000000   0.0000000   0.0000000   0.0000000
 NMagM=    0.0000000   2.7928460   2.7928460   2.7928460   2.7928460   2.7928460
 AtZNuc=   6.0000000   1.0000000   1.0000000   1.0000000   1.0000000   1.0000000
 Leave Link  101 at Fri Sep 13 21:48:57 2024, MaxMem=   268435456 cpu:         0.2
 (Enter /g100_work/pMI24_ChiCa/g09d1/g09d01/d01/build-node-6-2-59348/src/main/l103.exe)

 GradGradGradGradGradGradGradGradGradGradGradGradGradGradGradGradGradGrad
 Berny optimization.
 Initialization pass.
                       ----------------------------
                       !    Initial Parameters    !
                       ! (Angstroms and Degrees)  !
 ----------------------                            ----------------------
 !      Name          Value   Derivative information (Atomic Units)     !
 ------------------------------------------------------------------------
 !       hc2         1.088    calculate D2E/DX2 analytically            !
 !       hc3         1.088    calculate D2E/DX2 analytically            !
 !      hch3       114.2253   calculate D2E/DX2 analytically            !
 !       hc4         1.088    calculate D2E/DX2 analytically            !
 !      hch4       114.2137   calculate D2E/DX2 analytically            !
 !      dih4       134.0938   calculate D2E/DX2 analytically            !
 !       hc5         1.3607   calculate D2E/DX2 analytically            !
 !      hch5       104.1445   calculate D2E/DX2 analytically            !
 !      dih5      -112.9416   calculate D2E/DX2 analytically            !
 !      xxh6         1.0      frozen, calculate D2E/DX2 analytically    !
 !      xxhc6       89.9651   frozen, calculate D2E/DX2 analytically    !
 !      dih6        70.1542   frozen, calculate D2E/DX2 analytically    !
 !       hh7         0.9061   calculate D2E/DX2 analytically            !
 !      hhxx7       90.026    calculate D2E/DX2 analytically            !
 !      dih7       179.9285   calculate D2E/DX2 analytically            !
 ------------------------------------------------------------------------
 Trust Radius=3.00D-01 FncErr=1.00D-07 GrdErr=1.00D-06
 Number of steps in this run=     25 maximum allowed number of steps=    100.
 Search for a saddle point of order  1.
 GradGradGradGradGradGradGradGradGradGradGradGradGradGradGradGradGradGrad

 Leave Link  103 at Fri Sep 13 21:48:57 2024, MaxMem=   268435456 cpu:         0.1
 (Enter /g100_work/pMI24_ChiCa/g09d1/g09d01/d01/build-node-6-2-59348/src/main/l202.exe)
 ---------------------------------------------------------------------------------------------------
                            Z-MATRIX (ANGSTROMS AND DEGREES)
   CD    Cent   Atom    N1       Length/X        N2       Alpha/Y        N3        Beta/Z          J
 ---------------------------------------------------------------------------------------------------
      1      1  C 
      2      2  H        1   1.088000(     1)
      3      3  H        1   1.088000(     2)      2  114.225(     7)
      4      4  H        1   1.088000(     3)      2  114.214(     8)      3  134.094(    12)      0
      5      5  H        1   1.360700(     4)      2  104.144(     9)      3 -112.942(    13)      0
      6         X        5   1.000000(     5)      1   89.965(    10)      4   70.154(    14)      0
      7      6  H        5   0.906100(     6)      6   90.026(    11)      1  179.929(    15)      0
 ---------------------------------------------------------------------------------------------------
                         Z-Matrix orientation:                         
 ---------------------------------------------------------------------
 Center     Atomic      Atomic             Coordinates (Angstroms)
 Number     Number       Type             X           Y           Z
 ---------------------------------------------------------------------
      1          6           0        0.000000    0.000000    0.000000
      2          1           0        0.000000    0.000000    1.088000
      3          1           0        0.992190    0.000000   -0.446434
      4          1           0       -0.690463   -0.712657   -0.446234
      5          1           0       -0.514311    1.215082   -0.332512
      6         -1           0       -1.279285    1.061793    0.293041
      7          1           0       -0.857491    2.023713   -0.554684
 ---------------------------------------------------------------------
                    Distance matrix (angstroms):
                    1          2          3          4          5
     1  C    0.000000
     2  H    1.088000   0.000000
     3  H    1.088000   1.827274   0.000000
     4  H    1.088000   1.827154   1.827348   0.000000
     5  H    1.360700   1.938761   1.938800   1.939108   0.000000
     6  X    1.688149   1.842806   2.614159   2.010450   1.000000
     7  H    2.266800   2.743923   2.743802   2.743608   0.906100
                    6          7
     6  X    0.000000
     7  H    1.349755   0.000000
 Symmetry turned off by external request.
 Stoichiometry    CH5(2)
 Framework group  C1[X(CH5)]
 Deg. of freedom    12
 Full point group                 C1      NOp   1
 Rotational constants (GHZ):    150.1868679     59.7113293     59.7083946
 Leave Link  202 at Fri Sep 13 21:48:57 2024, MaxMem=   268435456 cpu:         0.2
 (Enter /g100_work/pMI24_ChiCa/g09d1/g09d01/d01/build-node-6-2-59348/src/main/l301.exe)
 Standard basis: 6-31G(d,p) (6D, 7F)
 Ernie: Thresh=  0.10000D-02 Tol=  0.10000D-05 Strict=F.
 AO basis set in the form of general basis input (Overlap normalization):
      1 0
 S   6 1.00       0.000000000000
      0.3047524880D+04  0.1834737132D-02
      0.4573695180D+03  0.1403732281D-01
      0.1039486850D+03  0.6884262226D-01
      0.2921015530D+02  0.2321844432D+00
      0.9286662960D+01  0.4679413484D+00
      0.3163926960D+01  0.3623119853D+00
 SP   3 1.00       0.000000000000
      0.7868272350D+01 -0.1193324198D+00  0.6899906659D-01
      0.1881288540D+01 -0.1608541517D+00  0.3164239610D+00
      0.5442492580D+00  0.1143456438D+01  0.7443082909D+00
 SP   1 1.00       0.000000000000
      0.1687144782D+00  0.1000000000D+01  0.1000000000D+01
 D   1 1.00       0.000000000000
      0.8000000000D+00  0.1000000000D+01
 ****
      2 0
 S   3 1.00       0.000000000000
      0.1873113696D+02  0.3349460434D-01
      0.2825394365D+01  0.2347269535D+00
      0.6401216923D+00  0.8137573261D+00
 S   1 1.00       0.000000000000
      0.1612777588D+00  0.1000000000D+01
 P   1 1.00       0.000000000000
      0.1100000000D+01  0.1000000000D+01
 ****
      3 0
 S   3 1.00       0.000000000000
      0.1873113696D+02  0.3349460434D-01
      0.2825394365D+01  0.2347269535D+00
      0.6401216923D+00  0.8137573261D+00
 S   1 1.00       0.000000000000
      0.1612777588D+00  0.1000000000D+01
 P   1 1.00       0.000000000000
      0.1100000000D+01  0.1000000000D+01
 ****
      4 0
 S   3 1.00       0.000000000000
      0.1873113696D+02  0.3349460434D-01
      0.2825394365D+01  0.2347269535D+00
      0.6401216923D+00  0.8137573261D+00
 S   1 1.00       0.000000000000
      0.1612777588D+00  0.1000000000D+01
 P   1 1.00       0.000000000000
      0.1100000000D+01  0.1000000000D+01
 ****
      5 0
 S   3 1.00       0.000000000000
      0.1873113696D+02  0.3349460434D-01
      0.2825394365D+01  0.2347269535D+00
      0.6401216923D+00  0.8137573261D+00
 S   1 1.00       0.000000000000
      0.1612777588D+00  0.1000000000D+01
 P   1 1.00       0.000000000000
      0.1100000000D+01  0.1000000000D+01
 ****
      6 0
 S   3 1.00       0.000000000000
      0.1873113696D+02  0.3349460434D-01
      0.2825394365D+01  0.2347269535D+00
      0.6401216923D+00  0.8137573261D+00
 S   1 1.00       0.000000000000
      0.1612777588D+00  0.1000000000D+01
 P   1 1.00       0.000000000000
      0.1100000000D+01  0.1000000000D+01
 ****

    40 basis functions,    63 primitive gaussians,    40 cartesian basis functions
     6 alpha electrons        5 beta electrons
       nuclear repulsion energy        15.3390539857 Hartrees.
 IExCor=  402 DFT=T Ex+Corr=B3LYP ExCW=0 ScaHFX=  0.200000
 ScaDFX=  0.800000  0.720000  1.000000  0.810000 ScalE2=  1.000000  1.000000
 IRadAn=      0 IRanWt=     -1 IRanGd=            0 ICorTp=0 IEmpDi=  4
 NAtoms=    6 NActive=    6 NUniq=    6 SFac= 1.00D+00 NAtFMM=   60 NAOKFM=F Big=F
 Integral buffers will be    131072 words long.
 Raffenetti 2 integral format.
 Two-electron integral symmetry is turned off.
 Leave Link  301 at Fri Sep 13 21:48:57 2024, MaxMem=   268435456 cpu:         0.1
 (Enter /g100_work/pMI24_ChiCa/g09d1/g09d01/d01/build-node-6-2-59348/src/main/l302.exe)
 NPDir=0 NMtPBC=     1 NCelOv=     1 NCel=       1 NClECP=     1 NCelD=      1
         NCelK=      1 NCelE2=     1 NClLst=     1 CellRange=     0.0.
 One-electron integrals computed using PRISM.
 NBasis=    40 RedAO= T EigKep=  1.33D-02  NBF=    40
 NBsUse=    40 1.00D-06 EigRej= -1.00D+00 NBFU=    40
 Precomputing XC quadrature grid using
 IXCGrd= 4 IRadAn=           0 IRanWt=          -1 IRanGd=           0 AccXCQ= 0.00D+00.
 Generated NRdTot=       0 NPtTot=           0 NUsed=           0 NTot=          32
 NSgBfM=    40    40    40    40    40 MxSgAt=     6 MxSgA2=     6.
 Leave Link  302 at Fri Sep 13 21:48:58 2024, MaxMem=   268435456 cpu:         1.2
 (Enter /g100_work/pMI24_ChiCa/g09d1/g09d01/d01/build-node-6-2-59348/src/main/l303.exe)
 DipDrv:  MaxL=1.
 Leave Link  303 at Fri Sep 13 21:48:58 2024, MaxMem=   268435456 cpu:         0.2
 (Enter /g100_work/pMI24_ChiCa/g09d1/g09d01/d01/build-node-6-2-59348/src/main/l401.exe)
 ExpMin= 1.61D-01 ExpMax= 3.05D+03 ExpMxC= 4.57D+02 IAcc=1 IRadAn=         1 AccDes= 0.00D+00
 Harris functional with IExCor=  402 and IRadAn=       1 diagonalized for initial guess.
 HarFok:  IExCor=  402 AccDes= 0.00D+00 IRadAn=         1 IDoV= 1 UseB2=F ITyADJ=14
 ICtDFT=  3500011 ScaDFX=  1.000000  1.000000  1.000000  1.000000
 FoFCou: FMM=F IPFlag=           0 FMFlag=      100000 FMFlg1=           0
         NFxFlg=           0 DoJE=T BraDBF=F KetDBF=T FulRan=T
         wScrn=  0.000000 ICntrl=     500 IOpCl=  0 I1Cent=   200000004 NGrid=           0
         NMat0=    1 NMatS0=      1 NMatT0=    0 NMatD0=    1 NMtDS0=    0 NMtDT0=    0
 Symmetry not used in FoFCou.
 Harris En= -41.0161793592981    
 JPrj=0 DoOrth=F DoCkMO=F.
 Initial guess <Sx>= 0.0000 <Sy>= 0.0000 <Sz>= 0.5000 <S**2>= 0.7500 S= 0.5000
 Leave Link  401 at Fri Sep 13 21:48:58 2024, MaxMem=   268435456 cpu:         1.2
 (Enter /g100_work/pMI24_ChiCa/g09d1/g09d01/d01/build-node-6-2-59348/src/main/l502.exe)
 UHF open shell SCF:
 Using DIIS extrapolation, IDIIS=  1040.
 Two-electron integral symmetry not used.
 Keep R1 and R2 ints in memory in canonical form, NReq=1558450.
 IVT=       24562 IEndB=       24562 NGot=   268435456 MDV=   267737675
 LenX=   267737675 LenY=   267735634
 Requested convergence on RMS density matrix=1.00D-08 within 128 cycles.
 Requested convergence on MAX density matrix=1.00D-06.
 Requested convergence on             energy=1.00D-06.
 No special actions if energy rises.
 FoFCou: FMM=F IPFlag=           0 FMFlag=           0 FMFlg1=           0
         NFxFlg=           0 DoJE=F BraDBF=F KetDBF=F FulRan=T
         wScrn=  0.000000 ICntrl=     600 IOpCl=  0 I1Cent=           0 NGrid=           0
         NMat0=    1 NMatS0=    820 NMatT0=    0 NMatD0=    1 NMtDS0=    0 NMtDT0=    0
 Symmetry not used in FoFCou.
 Integral accuracy reduced to 1.0D-05 until final iterations.

 Cycle   1  Pass 0  IDiag  1:
 E= -40.9391152229962    
 DIIS: error= 3.47D-02 at cycle   1 NSaved=   1.
 NSaved= 1 IEnMin= 1 EnMin= -40.9391152229962     IErMin= 1 ErrMin= 3.47D-02
 ErrMax= 3.47D-02  0.00D+00 EMaxC= 1.00D-01 BMatC= 2.43D-01 BMatP= 2.43D-01
 IDIUse=3 WtCom= 6.53D-01 WtEn= 3.47D-01
 Coeff-Com:  0.100D+01
 Coeff-En:   0.100D+01
 Coeff:      0.100D+01
 Gap=     0.312 Goal=   None    Shift=    0.000
 Gap=     0.339 Goal=   None    Shift=    0.000
 GapD=    0.312 DampG=1.000 DampE=0.500 DampFc=0.5000 IDamp=-1.
 Damping current iteration by 5.00D-01
 RMSDP=1.46D-02 MaxDP=2.89D-01              OVMax= 2.12D-01

 Cycle   2  Pass 0  IDiag  1:
 E= -40.9694802945561     Delta-E=       -0.030365071560 Rises=F Damp=T
 DIIS: error= 1.15D-02 at cycle   2 NSaved=   2.
 NSaved= 2 IEnMin= 2 EnMin= -40.9694802945561     IErMin= 2 ErrMin= 1.15D-02
 ErrMax= 1.15D-02  0.00D+00 EMaxC= 1.00D-01 BMatC= 1.18D-02 BMatP= 2.43D-01
 IDIUse=3 WtCom= 8.85D-01 WtEn= 1.15D-01
 Coeff-Com:  0.965D-01 0.904D+00
 Coeff-En:   0.155D+00 0.845D+00
 Coeff:      0.103D+00 0.897D+00
 Gap=     0.325 Goal=   None    Shift=    0.000
 Gap=     0.331 Goal=   None    Shift=    0.000
 RMSDP=2.28D-03 MaxDP=4.66D-02 DE=-3.04D-02 OVMax= 1.34D-01

 Cycle   3  Pass 0  IDiag  1:
 E= -41.0093195621180     Delta-E=       -0.039839267562 Rises=F Damp=F
 DIIS: error= 2.50D-03 at cycle   3 NSaved=   3.
 NSaved= 3 IEnMin= 3 EnMin= -41.0093195621180     IErMin= 3 ErrMin= 2.50D-03
 ErrMax= 2.50D-03  0.00D+00 EMaxC= 1.00D-01 BMatC= 3.87D-04 BMatP= 1.18D-02
 IDIUse=3 WtCom= 9.75D-01 WtEn= 2.50D-02
 Coeff-Com: -0.530D-02 0.251D-01 0.980D+00
 Coeff-En:   0.000D+00 0.000D+00 0.100D+01
 Coeff:     -0.517D-02 0.244D-01 0.981D+00
 Gap=     0.330 Goal=   None    Shift=    0.000
 Gap=     0.331 Goal=   None    Shift=    0.000
 RMSDP=5.14D-04 MaxDP=7.51D-03 DE=-3.98D-02 OVMax= 1.24D-02

 Cycle   4  Pass 0  IDiag  1:
 E= -41.0095278628069     Delta-E=       -0.000208300689 Rises=F Damp=F
 DIIS: error= 6.71D-04 at cycle   4 NSaved=   4.
 NSaved= 4 IEnMin= 4 EnMin= -41.0095278628069     IErMin= 4 ErrMin= 6.71D-04
 ErrMax= 6.71D-04  0.00D+00 EMaxC= 1.00D-01 BMatC= 4.54D-05 BMatP= 3.87D-04
 IDIUse=3 WtCom= 9.93D-01 WtEn= 6.71D-03
 Coeff-Com: -0.559D-03-0.365D-01 0.360D-04 0.104D+01
 Coeff-En:   0.000D+00 0.000D+00 0.000D+00 0.100D+01
 Coeff:     -0.556D-03-0.362D-01 0.358D-04 0.104D+01
 Gap=     0.329 Goal=   None    Shift=    0.000
 Gap=     0.333 Goal=   None    Shift=    0.000
 RMSDP=1.94D-04 MaxDP=2.53D-03 DE=-2.08D-04 OVMax= 4.19D-03

 Cycle   5  Pass 0  IDiag  1:
 E= -41.0095537482595     Delta-E=       -0.000025885453 Rises=F Damp=F
 DIIS: error= 2.63D-04 at cycle   5 NSaved=   5.
 NSaved= 5 IEnMin= 5 EnMin= -41.0095537482595     IErMin= 5 ErrMin= 2.63D-04
 ErrMax= 2.63D-04  0.00D+00 EMaxC= 1.00D-01 BMatC= 4.20D-06 BMatP= 4.54D-05
 IDIUse=3 WtCom= 9.97D-01 WtEn= 2.63D-03
 Coeff-Com: -0.159D-02 0.167D-02-0.830D-01 0.181D-01 0.106D+01
 Coeff-En:   0.000D+00 0.000D+00 0.000D+00 0.000D+00 0.100D+01
 Coeff:     -0.158D-02 0.166D-02-0.827D-01 0.180D-01 0.106D+01
 Gap=     0.330 Goal=   None    Shift=    0.000
 Gap=     0.333 Goal=   None    Shift=    0.000
 RMSDP=5.28D-05 MaxDP=6.91D-04 DE=-2.59D-05 OVMax= 1.27D-03

 Cycle   6  Pass 0  IDiag  1:
 E= -41.0095560645222     Delta-E=       -0.000002316263 Rises=F Damp=F
 DIIS: error= 1.85D-05 at cycle   6 NSaved=   6.
 NSaved= 6 IEnMin= 6 EnMin= -41.0095560645222     IErMin= 6 ErrMin= 1.85D-05
 ErrMax= 1.85D-05  0.00D+00 EMaxC= 1.00D-01 BMatC= 7.69D-08 BMatP= 4.20D-06
 IDIUse=1 WtCom= 1.00D+00 WtEn= 0.00D+00
 Coeff-Com:  0.397D-04 0.828D-03-0.311D-02-0.197D-01 0.323D-01 0.990D+00
 Coeff:      0.397D-04 0.828D-03-0.311D-02-0.197D-01 0.323D-01 0.990D+00
 Gap=     0.330 Goal=   None    Shift=    0.000
 Gap=     0.333 Goal=   None    Shift=    0.000
 RMSDP=7.21D-06 MaxDP=6.84D-05 DE=-2.32D-06 OVMax= 1.05D-04

 Initial convergence to 1.0D-05 achieved.  Increase integral accuracy.
 Cycle   7  Pass 1  IDiag  1:
 E= -41.0095577214197     Delta-E=       -0.000001656897 Rises=F Damp=F
 DIIS: error= 7.77D-06 at cycle   1 NSaved=   1.
 NSaved= 1 IEnMin= 1 EnMin= -41.0095577214197     IErMin= 1 ErrMin= 7.77D-06
 ErrMax= 7.77D-06  0.00D+00 EMaxC= 1.00D-01 BMatC= 1.14D-08 BMatP= 1.14D-08
 IDIUse=1 WtCom= 1.00D+00 WtEn= 0.00D+00
 Coeff-Com:  0.100D+01
 Coeff:      0.100D+01
 Gap=     0.330 Goal=   None    Shift=    0.000
 Gap=     0.333 Goal=   None    Shift=    0.000
 RMSDP=7.21D-06 MaxDP=6.84D-05 DE=-1.66D-06 OVMax= 3.76D-05

 Cycle   8  Pass 1  IDiag  1:
 E= -41.0095577267142     Delta-E=       -0.000000005295 Rises=F Damp=F
 DIIS: error= 3.20D-06 at cycle   2 NSaved=   2.
 NSaved= 2 IEnMin= 2 EnMin= -41.0095577267142     IErMin= 2 ErrMin= 3.20D-06
 ErrMax= 3.20D-06  0.00D+00 EMaxC= 1.00D-01 BMatC= 2.09D-09 BMatP= 1.14D-08
 IDIUse=1 WtCom= 1.00D+00 WtEn= 0.00D+00
 Coeff-Com:  0.173D+00 0.827D+00
 Coeff:      0.173D+00 0.827D+00
 Gap=     0.330 Goal=   None    Shift=    0.000
 Gap=     0.333 Goal=   None    Shift=    0.000
 RMSDP=9.58D-07 MaxDP=7.99D-06 DE=-5.29D-09 OVMax= 1.38D-05

 Cycle   9  Pass 1  IDiag  1:
 E= -41.0095577276438     Delta-E=       -0.000000000930 Rises=F Damp=F
 DIIS: error= 1.34D-06 at cycle   3 NSaved=   3.
 NSaved= 3 IEnMin= 3 EnMin= -41.0095577276438     IErMin= 3 ErrMin= 1.34D-06
 ErrMax= 1.34D-06  0.00D+00 EMaxC= 1.00D-01 BMatC= 3.05D-10 BMatP= 2.09D-09
 IDIUse=1 WtCom= 1.00D+00 WtEn= 0.00D+00
 Coeff-Com: -0.184D+00-0.862D-01 0.127D+01
 Coeff:     -0.184D+00-0.862D-01 0.127D+01
 Gap=     0.330 Goal=   None    Shift=    0.000
 Gap=     0.333 Goal=   None    Shift=    0.000
 RMSDP=5.46D-07 MaxDP=6.20D-06 DE=-9.30D-10 OVMax= 8.95D-06

 Cycle  10  Pass 1  IDiag  1:
 E= -41.0095577278701     Delta-E=       -0.000000000226 Rises=F Damp=F
 DIIS: error= 4.03D-07 at cycle   4 NSaved=   4.
 NSaved= 4 IEnMin= 4 EnMin= -41.0095577278701     IErMin= 4 ErrMin= 4.03D-07
 ErrMax= 4.03D-07  0.00D+00 EMaxC= 1.00D-01 BMatC= 2.64D-11 BMatP= 3.05D-10
 IDIUse=1 WtCom= 1.00D+00 WtEn= 0.00D+00
 Coeff-Com: -0.696D-01-0.569D-01 0.433D+00 0.693D+00
 Coeff:     -0.696D-01-0.569D-01 0.433D+00 0.693D+00
 Gap=     0.330 Goal=   None    Shift=    0.000
 Gap=     0.333 Goal=   None    Shift=    0.000
 RMSDP=1.21D-07 MaxDP=2.00D-06 DE=-2.26D-10 OVMax= 2.01D-06

 Cycle  11  Pass 1  IDiag  1:
 E= -41.0095577278769     Delta-E=       -0.000000000007 Rises=F Damp=F
 DIIS: error= 2.24D-07 at cycle   5 NSaved=   5.
 NSaved= 5 IEnMin= 5 EnMin= -41.0095577278769     IErMin= 5 ErrMin= 2.24D-07
 ErrMax= 2.24D-07  0.00D+00 EMaxC= 1.00D-01 BMatC= 6.75D-12 BMatP= 2.64D-11
 IDIUse=1 WtCom= 1.00D+00 WtEn= 0.00D+00
 Coeff-Com:  0.785D-02-0.814D-02-0.722D-01 0.338D+00 0.735D+00
 Coeff:      0.785D-02-0.814D-02-0.722D-01 0.338D+00 0.735D+00
 Gap=     0.330 Goal=   None    Shift=    0.000
 Gap=     0.333 Goal=   None    Shift=    0.000
 RMSDP=2.95D-08 MaxDP=4.54D-07 DE=-6.79D-12 OVMax= 8.99D-07

 Cycle  12  Pass 1  IDiag  1:
 E= -41.0095577278788     Delta-E=       -0.000000000002 Rises=F Damp=F
 DIIS: error= 1.43D-08 at cycle   6 NSaved=   6.
 NSaved= 6 IEnMin= 6 EnMin= -41.0095577278788     IErMin= 6 ErrMin= 1.43D-08
 ErrMax= 1.43D-08  0.00D+00 EMaxC= 1.00D-01 BMatC= 1.96D-14 BMatP= 6.75D-12
 IDIUse=1 WtCom= 1.00D+00 WtEn= 0.00D+00
 Coeff-Com:  0.146D-03 0.210D-02 0.221D-02-0.611D-01-0.904D-01 0.115D+01
 Coeff:      0.146D-03 0.210D-02 0.221D-02-0.611D-01-0.904D-01 0.115D+01
 Gap=     0.330 Goal=   None    Shift=    0.000
 Gap=     0.333 Goal=   None    Shift=    0.000
 RMSDP=4.91D-09 MaxDP=7.49D-08 DE=-1.89D-12 OVMax= 1.22D-07

 SCF Done:  E(UB3LYP) =  -41.0095577279     A.U. after   12 cycles
            NFock= 12  Conv=0.49D-08     -V/T= 2.0103
 <Sx>= 0.0000 <Sy>= 0.0000 <Sz>= 0.5000 <S**2>= 0.7576 S= 0.5038
 <L.S>=  0.00000000000    
 KE= 4.059086717734D+01 PE=-1.246110480216D+02 EE= 2.767156913066D+01
 Annihilation of the first spin contaminant:
 S**2 before annihilation     0.7576,   after     0.7500
 Leave Link  502 at Fri Sep 13 21:48:58 2024, MaxMem=   268435456 cpu:         5.7
 (Enter /g100_work/pMI24_ChiCa/g09d1/g09d01/d01/build-node-6-2-59348/src/main/l801.exe)
 DoSCS=F DFT=T ScalE2(SS,OS)=  1.000000  1.000000
 Range of M.O.s used for correlation:     1    40
 NBasis=    40 NAE=     6 NBE=     5 NFC=     0 NFV=     0
 NROrb=     40 NOA=     6 NOB=     5 NVA=    34 NVB=    35
 Leave Link  801 at Fri Sep 13 21:48:58 2024, MaxMem=   268435456 cpu:         0.1
 (Enter /g100_work/pMI24_ChiCa/g09d1/g09d01/d01/build-node-6-2-59348/src/main/l1101.exe)
 Using compressed storage, NAtomX=     6.
 Will process      7 centers per pass.
 Leave Link 1101 at Fri Sep 13 21:48:58 2024, MaxMem=   268435456 cpu:         1.3
 (Enter /g100_work/pMI24_ChiCa/g09d1/g09d01/d01/build-node-6-2-59348/src/main/l1102.exe)
 Symmetrizing basis deriv contribution to polar:
 IMax=3 JMax=2 DiffMx= 0.00D+00
 Leave Link 1102 at Fri Sep 13 21:48:58 2024, MaxMem=   268435456 cpu:         0.2
 (Enter /g100_work/pMI24_ChiCa/g09d1/g09d01/d01/build-node-6-2-59348/src/main/l1110.exe)
 Forming Gx(P) for the SCF density, NAtomX=     6.
 Integral derivatives from FoFJK, PRISM(SPDF).
 Do as many integral derivatives as possible in FoFJK.
 G2DrvN: MDV=     268435304.
 G2DrvN: will do     7 centers at a time, making    1 passes.
 Calling FoFCou, ICntrl=  3107 FMM=F I1Cent=   0 AccDes= 0.00D+00.
 FoFJK:  IHMeth= 1 ICntrl=    3107 DoSepK=F KAlg= 0 I1Cent=   0 FoldK=F
 IRaf=         0 NMat=   1 IRICut=       1 DoRegI=T DoRafI=F ISym2E= 0.
 FoFCou: FMM=F IPFlag=           0 FMFlag=      100000 FMFlg1=           0
         NFxFlg=           0 DoJE=F BraDBF=F KetDBF=F FulRan=T
         wScrn=  0.000000 ICntrl=    3107 IOpCl=  1 I1Cent=           0 NGrid=           0
         NMat0=    1 NMatS0=      1 NMatT0=    0 NMatD0=    1 NMtDS0=    0 NMtDT0=    0
 Symmetry not used in FoFCou.
 End of G2Drv F.D. properties file   721 does not exist.
 End of G2Drv F.D. properties file   722 does not exist.
 End of G2Drv F.D. properties file   788 does not exist.
 Leave Link 1110 at Fri Sep 13 21:48:59 2024, MaxMem=   268435456 cpu:         4.2
 (Enter /g100_work/pMI24_ChiCa/g09d1/g09d01/d01/build-node-6-2-59348/src/main/l1002.exe)
 Minotr:  UHF open shell wavefunction.
          IDoAtm=111111
          Direct CPHF calculation.
          Differentiating once with respect to nuclear coordinates.
          Requested convergence is 1.0D-08 RMS, and 1.0D-07 maximum.
          Secondary convergence is 1.0D-12 RMS, and 1.0D-12 maximum.
          NewPWx=T KeepS1=F KeepF1=F KeepIn=T MapXYZ=F SortEE=F KeepMc=T.
          MDV=     268435312 using IRadAn=       2.
 Generate precomputed XC quadrature information.
 Keep R1 and R2 ints in memory in canonical form, NReq=1534200.
 FoFCou: FMM=F IPFlag=           0 FMFlag=           0 FMFlg1=           0
         NFxFlg=           0 DoJE=F BraDBF=F KetDBF=F FulRan=T
         wScrn=  0.000000 ICntrl=     600 IOpCl=  0 I1Cent=           0 NGrid=           0
         NMat0=    1 NMatS0=    820 NMatT0=    0 NMatD0=    1 NMtDS0=    0 NMtDT0=    0
 Symmetry not used in FoFCou.
          Solving linear equations simultaneously, MaxMat=       0.
          There are    21 degrees of freedom in the 1st order CPHF.  IDoFFX=6 NUNeed=     0.
     15 vectors produced by pass  0 Test12= 1.80D-15 4.76D-09 XBig12= 1.37D-01 2.16D-01.
 AX will form    15 AO Fock derivatives at one time.
     15 vectors produced by pass  1 Test12= 1.80D-15 4.76D-09 XBig12= 5.33D-03 2.43D-02.
     15 vectors produced by pass  2 Test12= 1.80D-15 4.76D-09 XBig12= 6.07D-05 2.47D-03.
     15 vectors produced by pass  3 Test12= 1.80D-15 4.76D-09 XBig12= 3.29D-07 2.07D-04.
     15 vectors produced by pass  4 Test12= 1.80D-15 4.76D-09 XBig12= 4.00D-09 1.81D-05.
     11 vectors produced by pass  5 Test12= 1.80D-15 4.76D-09 XBig12= 1.25D-11 9.12D-07.
      3 vectors produced by pass  6 Test12= 1.80D-15 4.76D-09 XBig12= 3.28D-14 4.84D-08.
 InvSVY:  IOpt=1 It=  1 EMax= 1.33D-15
 Solved reduced A of dimension    89 with    15 vectors.
 End of Minotr F.D. properties file   721 does not exist.
 End of Minotr F.D. properties file   722 does not exist.
 End of Minotr F.D. properties file   788 does not exist.
 Leave Link 1002 at Fri Sep 13 21:48:59 2024, MaxMem=   268435456 cpu:         6.4
 (Enter /g100_work/pMI24_ChiCa/g09d1/g09d01/d01/build-node-6-2-59348/src/main/l601.exe)
 Copying SCF densities to generalized density rwf, IOpCl= 1 IROHF=0.

 **********************************************************************

            Population analysis using the SCF density.

 **********************************************************************

 Alpha  occ. eigenvalues --  -10.19537  -0.70389  -0.45140  -0.41372  -0.41369
 Alpha  occ. eigenvalues --   -0.21360
 Alpha virt. eigenvalues --    0.11597   0.16899   0.16901   0.21043   0.51661
 Alpha virt. eigenvalues --    0.51664   0.54689   0.68604   0.86948   0.86951
 Alpha virt. eigenvalues --    0.90715   0.95623   1.19351   1.36079   1.36084
 Alpha virt. eigenvalues --    1.75581   1.75582   1.80097   1.99677   1.99685
 Alpha virt. eigenvalues --    2.01696   2.28026   2.28034   2.50650   2.54186
 Alpha virt. eigenvalues --    2.64231   2.64247   2.82123   2.82136   3.19155
 Alpha virt. eigenvalues --    3.41150   3.41160   3.86719   4.50871
  Beta  occ. eigenvalues --  -10.18514  -0.67809  -0.40681  -0.40656  -0.40653
  Beta virt. eigenvalues --   -0.07377   0.12337   0.17514   0.17515   0.23983
  Beta virt. eigenvalues --    0.52034   0.52036   0.59041   0.72937   0.87574
  Beta virt. eigenvalues --    0.87577   0.93013   0.96869   1.21338   1.38336
  Beta virt. eigenvalues --    1.38342   1.78941   1.78942   1.84353   2.00658
  Beta virt. eigenvalues --    2.00666   2.01499   2.31012   2.31020   2.51291
  Beta virt. eigenvalues --    2.59009   2.65519   2.65535   2.83192   2.83204
  Beta virt. eigenvalues --    3.20149   3.41901   3.41911   3.90659   4.53255
     Alpha Molecular Orbital Coefficients:
                           1         2         3         4         5
                           O         O         O         O         O
     Eigenvalues --   -10.19537  -0.70389  -0.45140  -0.41372  -0.41369
   1 1   C  1S          0.99275  -0.19945   0.03154  -0.00001   0.00000
   2        2S          0.05052   0.39402  -0.06130   0.00003  -0.00000
   3        2PX        -0.00007  -0.00141  -0.10619   0.40627   0.10468
   4        2PY         0.00017   0.00333   0.25116   0.13012   0.15711
   5        2PZ        -0.00005  -0.00089  -0.06872  -0.15286   0.41197
   6        3S         -0.01514   0.36839  -0.07311   0.00002  -0.00003
   7        3PX         0.00039  -0.00125  -0.04837   0.17689   0.04559
   8        3PY        -0.00091   0.00296   0.11436   0.05664   0.06839
   9        3PZ         0.00025  -0.00080  -0.03130  -0.06655   0.17938
  10        4XX        -0.00939  -0.00924  -0.00194   0.01278  -0.01123
  11        4YY        -0.00935  -0.00473   0.01504  -0.00595  -0.00718
  12        4ZZ        -0.00939  -0.00982  -0.00410  -0.00683   0.01842
  13        4XY        -0.00002  -0.00269  -0.01012  -0.00633  -0.00890
  14        4XZ         0.00001   0.00073   0.00277  -0.01524  -0.00455
  15        4YZ        -0.00001  -0.00174  -0.00654  -0.00545  -0.00463
  16 2   H  1S         -0.00018   0.13897  -0.07227  -0.09668   0.26063
  17        2S          0.00252   0.04109  -0.05087  -0.08011   0.21598
  18        3PX        -0.00002   0.00013  -0.00205   0.00706   0.00211
  19        3PY         0.00004  -0.00031   0.00485   0.00252   0.00214
  20        3PZ         0.00017  -0.01291   0.00325   0.00252  -0.00680
  21 3   H  1S         -0.00018   0.13896  -0.07223   0.27407  -0.04656
  22        2S          0.00252   0.04109  -0.05084   0.22710  -0.03858
  23        3PX         0.00015  -0.01172   0.00213  -0.00621   0.00411
  24        3PY         0.00004  -0.00031   0.00485   0.00163   0.00288
  25        3PZ        -0.00008   0.00542  -0.00321   0.00363   0.00618
  26 4   H  1S         -0.00018   0.13896  -0.07240  -0.17734  -0.21404
  27        2S          0.00251   0.04109  -0.05096  -0.14694  -0.17737
  28        3PX        -0.00013   0.00838  -0.00496   0.00083  -0.00579
  29        3PY        -0.00008   0.00820   0.00184  -0.00362  -0.00437
  30        3PZ        -0.00008   0.00542  -0.00321  -0.00678   0.00232
  31 5   H  1S         -0.00008   0.10218   0.27801  -0.00007  -0.00005
  32        2S          0.00441   0.03751   0.21983  -0.00003   0.00001
  33        3PX        -0.00014   0.00324  -0.00179   0.00583   0.00150
  34        3PY         0.00032  -0.00765   0.00420   0.00186   0.00225
  35        3PZ        -0.00009   0.00209  -0.00116  -0.00219   0.00592
  36 6   H  1S         -0.00032   0.04369   0.26589  -0.00010  -0.00009
  37        2S         -0.00153   0.02023   0.23080  -0.00012  -0.00012
  38        3PX        -0.00010   0.00168   0.00489   0.00116   0.00030
  39        3PY         0.00023  -0.00397  -0.01151   0.00038   0.00045
  40        3PZ        -0.00006   0.00109   0.00316  -0.00044   0.00118
                           6         7         8         9        10
                           O         V         V         V         V
     Eigenvalues --    -0.21360   0.11597   0.16899   0.16901   0.21043
   1 1   C  1S          0.04816  -0.14752  -0.00004  -0.00004   0.06467
   2        2S         -0.10464   0.19231   0.00006   0.00005  -0.08041
   3        2PX         0.17818   0.06160  -0.11212  -0.34294   0.08263
   4        2PY        -0.42063  -0.14535  -0.14183  -0.10304  -0.19632
   5        2PZ         0.11522   0.03981  -0.34519   0.15373   0.05336
   6        3S         -0.27060   2.31709   0.00056   0.00071  -1.01358
   7        3PX         0.14024   0.14633  -0.39675  -1.21351   0.41636
   8        3PY        -0.33110  -0.34531  -0.50175  -0.36456  -0.98595
   9        3PZ         0.09067   0.09460  -1.22133   0.54392   0.26915
  10        4XX         0.00463  -0.01949  -0.00910   0.01421   0.00028
  11        4YY        -0.00389  -0.00518  -0.00870  -0.00632   0.03811
  12        4ZZ         0.00571  -0.02130   0.01777  -0.00791  -0.00452
  13        4XY         0.00507  -0.00852  -0.00897  -0.00736  -0.02250
  14        4XZ        -0.00139   0.00234  -0.00392  -0.01367   0.00615
  15        4YZ         0.00327  -0.00551  -0.00668  -0.00354  -0.01454
  16 2   H  1S          0.03613  -0.04949   0.10346  -0.04601  -0.06488
  17        2S          0.07856  -1.12258   1.64166  -0.73130  -0.03477
  18        3PX         0.00396   0.00219  -0.00373  -0.01205   0.00259
  19        3PY        -0.00935  -0.00516  -0.00538  -0.00340  -0.00615
  20        3PZ         0.00086  -0.00604   0.00352  -0.00157   0.00182
  21 3   H  1S          0.03613  -0.04954  -0.01180   0.11258  -0.06484
  22        2S          0.07855  -1.12279  -0.18756   1.78727  -0.03493
  23        3PX         0.00241  -0.00461  -0.00555   0.00357   0.00272
  24        3PY        -0.00935  -0.00516  -0.00490  -0.00407  -0.00616
  25        3PZ         0.00326   0.00447  -0.01134  -0.00141   0.00162
  26 4   H  1S          0.03608  -0.04951  -0.09157  -0.06647  -0.06471
  27        2S          0.07848  -1.12258  -1.45389  -1.05639  -0.03740
  28        3PX         0.00504   0.00691   0.00461  -0.00578   0.00254
  29        3PY        -0.00824  -0.00028   0.00439   0.00319  -0.00625
  30        3PZ         0.00326   0.00446  -0.00654   0.00937   0.00164
  31 5   H  1S         -0.01895   0.04300  -0.00023  -0.00014   0.31568
  32        2S         -0.04825  -0.19498  -0.00164  -0.00111   2.71262
  33        3PX        -0.00932  -0.00004  -0.00240  -0.00734   0.00053
  34        3PY         0.02200   0.00008  -0.00304  -0.00221  -0.00124
  35        3PZ        -0.00603  -0.00003  -0.00738   0.00328   0.00035
  36 6   H  1S          0.29607   0.04109   0.00003   0.00002  -0.00079
  37        2S          0.55915   0.10452   0.00107   0.00073  -1.81599
  38        3PX         0.00026   0.00100  -0.00160  -0.00488   0.01021
  39        3PY        -0.00059  -0.00235  -0.00201  -0.00146  -0.02399
  40        3PZ         0.00017   0.00065  -0.00491   0.00219   0.00662
                          11        12        13        14        15
                           V         V         V         V         V
     Eigenvalues --     0.51661   0.51664   0.54689   0.68604   0.86948
   1 1   C  1S         -0.00001  -0.00001   0.01943   0.03106   0.00001
   2        2S          0.00033   0.00012  -0.00606   0.08784   0.00003
   3        2PX        -0.18635  -0.66101   0.36572  -0.07027   0.15982
   4        2PY        -0.26196  -0.20696  -0.86380   0.16569   0.25930
   5        2PZ        -0.66847   0.26537   0.23672  -0.04536   0.69973
   6        3S         -0.00026  -0.00008  -0.21577  -0.23039  -0.00013
   7        3PX         0.38788   1.37672  -0.53424  -0.06555  -0.27464
   8        3PY         0.54595   0.43154   1.26240   0.15552  -0.44566
   9        3PZ         1.39192  -0.55289  -0.34605  -0.04264  -1.20251
  10        4XX         0.03588  -0.04823   0.02046   0.04955   0.12853
  11        4YY         0.02859   0.02264  -0.04650  -0.01658   0.09106
  12        4ZZ        -0.06440   0.02560   0.02900   0.05792  -0.21957
  13        4XY         0.03130   0.02567   0.03990   0.03945   0.10088
  14        4XZ         0.01368   0.05062  -0.01092  -0.01079   0.03940
  15        4YZ         0.02122   0.01534   0.02579   0.02549   0.06648
  16 2   H  1S         -0.42213   0.16767   0.18590   0.28425  -0.76473
  17        2S         -0.31869   0.12672   0.09642  -0.00581   1.61152
  18        3PX         0.00651   0.02360  -0.00155  -0.00354   0.01142
  19        3PY         0.00964   0.00728   0.00368   0.00838   0.01941
  20        3PZ         0.03902  -0.01550  -0.00609   0.02532  -0.09817
  21 3   H  1S          0.06612  -0.44955   0.18570   0.28429   0.15457
  22        2S          0.04973  -0.33964   0.09612  -0.00611  -0.32565
  23        3PX         0.00448   0.03826  -0.00617   0.02165   0.03915
  24        3PY         0.00931   0.00771   0.00368   0.00838   0.01878
  25        3PZ         0.02480  -0.01622   0.00106  -0.01362   0.03865
  26 4   H  1S          0.35651   0.28189   0.18580   0.28443   0.61020
  27        2S          0.26889   0.21305   0.09644  -0.00595  -1.28579
  28        3PX         0.01491   0.03011   0.00166  -0.02108  -0.06362
  29        3PY         0.01756   0.01388   0.00701  -0.00972  -0.05940
  30        3PZ         0.02916  -0.00523   0.00107  -0.01362   0.00233
  31 5   H  1S         -0.00043  -0.00023  -0.09235   0.37430   0.00004
  32        2S         -0.00055  -0.00026  -0.33346  -0.50399  -0.00006
  33        3PX         0.00913   0.03242  -0.03044  -0.03422   0.00519
  34        3PY         0.01287   0.01016   0.07196   0.08059   0.00833
  35        3PZ         0.03276  -0.01301  -0.01969  -0.02217   0.02263
  36 6   H  1S         -0.00011  -0.00010  -0.03154   0.97926  -0.00012
  37        2S          0.00078   0.00050  -0.10380  -0.78874   0.00015
  38        3PX         0.00691   0.02463   0.00421   0.00720  -0.00264
  39        3PY         0.00986   0.00778  -0.00997  -0.01696  -0.00433
  40        3PZ         0.02491  -0.00992   0.00271   0.00465  -0.01161
                          16        17        18        19        20
                           V         V         V         V         V
     Eigenvalues --     0.86951   0.90715   0.95623   1.19351   1.36079
   1 1   C  1S         -0.00002   0.06283  -0.00052  -0.11481   0.00006
   2        2S          0.00027  -1.08617  -0.24343  -2.00531   0.00104
   3        2PX         0.68823  -0.08656  -0.11333   0.09108  -0.02742
   4        2PY         0.22543   0.20486   0.26854  -0.21584  -0.00516
   5        2PZ        -0.24073  -0.05620  -0.07325   0.05880   0.02299
   6        3S         -0.00051   2.21498   0.17228   5.39197  -0.00282
   7        3PX        -1.18279   0.15719   0.42744  -0.35063   0.01946
   8        3PY        -0.38736  -0.37201  -1.01195   0.83046   0.00322
   9        3PZ         0.41369   0.10200   0.27625  -0.22614  -0.01605
  10        4XX        -0.15471   0.02734   0.03440  -0.09890   0.10922
  11        4YY         0.07923  -0.05373  -0.16771  -0.06540  -0.11863
  12        4ZZ         0.07549   0.03774   0.06023  -0.10396   0.00950
  13        4XY         0.08893   0.04842   0.12049  -0.02081  -0.41569
  14        4XZ         0.17275  -0.01324  -0.03309   0.00641   0.16450
  15        4YZ         0.05600   0.03127   0.07795  -0.01347   0.50528
  16 2   H  1S          0.26293   0.52361   0.15462  -0.38496  -0.01793
  17        2S         -0.55404  -0.90087  -0.58716  -0.75100   0.01905
  18        3PX         0.05022   0.00100  -0.01751  -0.00597   0.07113
  19        3PY         0.01625  -0.00235   0.04122   0.01491   0.22677
  20        3PZ         0.03376   0.07807   0.01077   0.00607  -0.00520
  21 3   H  1S         -0.79398   0.52326   0.15452  -0.38479   0.02738
  22        2S          1.67301  -0.90028  -0.58714  -0.75069  -0.02757
  23        3PX        -0.09117   0.07155   0.00264   0.00311   0.03562
  24        3PY         0.01698  -0.00234   0.04119   0.01491  -0.26444
  25        3PZ         0.04579  -0.03113  -0.02040  -0.00789   0.06021
  26 4   H  1S          0.53063   0.52358   0.15447  -0.38467  -0.00873
  27        2S         -1.11813  -0.90102  -0.58786  -0.75000   0.00962
  28        3PX        -0.01533  -0.04813  -0.03144  -0.01295   0.05720
  29        3PY        -0.05167  -0.05305   0.02665   0.00858   0.06931
  30        3PZ        -0.05986  -0.03113  -0.02036  -0.00831  -0.19292
  31 5   H  1S          0.00004   0.30149  -1.17022   0.06350  -0.00003
  32        2S         -0.00029  -0.40684   3.23040  -2.67789   0.00153
  33        3PX         0.02226   0.01364  -0.03823  -0.03247  -0.19101
  34        3PY         0.00727  -0.03198   0.09046   0.07524  -0.03688
  35        3PZ        -0.00778   0.00883  -0.02469  -0.02108   0.16076
  36 6   H  1S          0.00015  -0.54917   0.31671   0.38568  -0.00023
  37        2S         -0.00000   0.65415  -1.60897   0.71299  -0.00044
  38        3PX        -0.01142   0.02118  -0.04188  -0.02602  -0.07315
  39        3PY        -0.00375  -0.04990   0.09893   0.06029  -0.01420
  40        3PZ         0.00400   0.01371  -0.02708  -0.01694   0.06160
                          21        22        23        24        25
                           V         V         V         V         V
     Eigenvalues --     1.36084   1.75581   1.75582   1.80097   1.99677
   1 1   C  1S          0.00020  -0.00019  -0.00024  -0.05487  -0.00000
   2        2S          0.00340  -0.00079  -0.00101   0.02715   0.00000
   3        2PX        -0.01948   0.07805   0.00500  -0.05573  -0.10253
   4        2PY        -0.01489   0.02955   0.02455   0.13100  -0.03665
   5        2PZ        -0.02657  -0.01379   0.08079  -0.03613   0.02478
   6        3S         -0.00942   0.00395   0.00491   0.61910   0.00008
   7        3PX         0.01444  -0.19543  -0.01288   0.09206   0.64040
   8        3PY         0.00876  -0.07330  -0.06064  -0.21596   0.22890
   9        3PZ         0.01916   0.03426  -0.20227   0.05974  -0.15475
  10        4XX         0.35676   0.12556  -0.01116   0.10446   0.34760
  11        4YY        -0.34568  -0.10937  -0.09112  -0.53931  -0.21688
  12        4ZZ        -0.01080  -0.01673   0.10163   0.18633  -0.13076
  13        4XY        -0.06182  -0.13678   0.00073   0.38468  -0.24307
  14        4XZ         0.45906   0.00769   0.06622  -0.10540  -0.43329
  15        4YZ        -0.30569   0.03400  -0.14733   0.24887  -0.15373
  16 2   H  1S          0.02160   0.00870  -0.05721  -0.26533   0.12724
  17        2S         -0.02043  -0.02702   0.15747  -0.01529   0.01422
  18        3PX         0.20456  -0.08036   0.08891  -0.04981  -0.32047
  19        3PY        -0.13926   0.01362  -0.23977   0.11830  -0.08657
  20        3PZ         0.00597   0.00382  -0.02408  -0.09703   0.06531
  21 3   H  1S          0.00604  -0.05430   0.01875  -0.26547  -0.53301
  22        2S         -0.00443   0.14977  -0.05594  -0.01504  -0.05916
  23        3PX         0.08555   0.00886  -0.03180  -0.10888  -0.25673
  24        3PY         0.02937  -0.23321   0.05817   0.11801  -0.21307
  25        3PZ         0.18643   0.07545  -0.09046  -0.00533   0.09611
  26 4   H  1S         -0.02539   0.04290   0.03513  -0.26591   0.40562
  27        2S          0.02796  -0.12349  -0.10238  -0.01430   0.04508
  28        3PX        -0.17461  -0.14596  -0.07182  -0.00786  -0.33831
  29        3PY         0.20191   0.13936   0.11561   0.15927  -0.02743
  30        3PZ        -0.03402  -0.04142  -0.11027  -0.00494   0.05969
  31 5   H  1S         -0.00058   0.00116   0.00144   0.29549   0.00011
  32        2S          0.00658  -0.00342  -0.00436  -0.54931  -0.00032
  33        3PX        -0.13443   0.47698   0.03068  -0.12049  -0.10109
  34        3PY        -0.10751   0.18006   0.14954   0.28058  -0.03614
  35        3PZ        -0.18452  -0.08414   0.49366  -0.07838   0.02442
  36 6   H  1S         -0.00074  -0.00071  -0.00084  -0.35496  -0.00007
  37        2S         -0.00220   0.00191   0.00238   0.49470   0.00022
  38        3PX        -0.05139   0.61258   0.04000   0.11785  -0.20919
  39        3PY        -0.04148   0.22975   0.19036  -0.28309  -0.07484
  40        3PZ        -0.07062  -0.10762   0.63389   0.07569   0.05069
                          26        27        28        29        30
                           V         V         V         V         V
     Eigenvalues --     1.99685   2.01696   2.28026   2.28034   2.50650
   1 1   C  1S         -0.00002   0.00000   0.00005  -0.00000   0.02065
   2        2S         -0.00010   0.00000   0.00037  -0.00001   0.22411
   3        2PX        -0.01315   0.00031   0.05955  -0.07691   0.03641
   4        2PY        -0.03442   0.00021   0.04541  -0.01331  -0.08580
   5        2PZ        -0.10539   0.00028   0.07366   0.07037   0.02354
   6        3S          0.00047  -0.00000  -0.00150   0.00008  -0.58134
   7        3PX         0.08209  -0.00184   0.01501  -0.01893   0.28404
   8        3PY         0.21501  -0.00124   0.01050  -0.00326  -0.67139
   9        3PZ         0.65805  -0.00166   0.01845   0.01737   0.18379
  10        4XX        -0.35331   0.00024  -0.06828   0.30112  -0.07577
  11        4YY        -0.20391   0.00115   0.29319  -0.08595   0.22819
  12        4ZZ         0.55715  -0.00138  -0.22503  -0.21517  -0.11468
  13        4XY        -0.22520   0.00128   0.20755  -0.21235  -0.18125
  14        4XZ        -0.05382   0.00123  -0.03292  -0.13647   0.04973
  15        4YZ        -0.14918   0.00083   0.22389   0.16897  -0.11726
  16 2   H  1S         -0.54198   0.00136   0.12505   0.11948   0.06582
  17        2S         -0.05996   0.00012  -0.12955  -0.12389  -0.05895
  18        3PX         0.00526   0.53533   0.03168   0.27586  -0.24717
  19        3PY        -0.20676   0.22729  -0.41645  -0.29357   0.58375
  20        3PZ        -0.27823   0.00074   0.12094   0.11567   0.04258
  21 3   H  1S          0.16059   0.00082   0.04082  -0.16808   0.06581
  22        2S          0.01777   0.00008  -0.04216   0.17424  -0.05885
  23        3PX        -0.05738  -0.21846  -0.01424  -0.25074  -0.06262
  24        3PY        -0.07481  -0.22560  -0.19222   0.47197   0.58370
  25        3PZ        -0.32848  -0.48661  -0.12771  -0.16069  -0.24302
  26 4   H  1S          0.38111  -0.00218  -0.16602   0.04862   0.06569
  27        2S          0.04209  -0.00020   0.17225  -0.05038  -0.05897
  28        3PX        -0.06542  -0.31403  -0.15747   0.15520  -0.37557
  29        3PY        -0.02586   0.00021   0.50224  -0.14703   0.45112
  30        3PZ        -0.33457   0.48843  -0.16639  -0.12011  -0.24299
  31 5   H  1S          0.00017  -0.00000   0.00056  -0.00003   0.05899
  32        2S         -0.00055   0.00000   0.00143  -0.00010   0.80081
  33        3PX        -0.01298   0.00026   0.22942  -0.29595   0.03785
  34        3PY        -0.03390   0.00017   0.17428  -0.05115  -0.08938
  35        3PZ        -0.10385   0.00023   0.28360   0.27072   0.02411
  36 6   H  1S         -0.00013   0.00000   0.00032  -0.00003  -0.03044
  37        2S          0.00039  -0.00000  -0.00087   0.00008  -0.24683
  38        3PX        -0.02664   0.00061  -0.30644   0.39538  -0.02249
  39        3PY        -0.07041   0.00041  -0.23323   0.06835   0.05247
  40        3PZ        -0.21499   0.00055  -0.37890  -0.36169  -0.01435
                          31        32        33        34        35
                           V         V         V         V         V
     Eigenvalues --     2.54186   2.64231   2.64247   2.82123   2.82136
   1 1   C  1S         -0.06768  -0.00014  -0.00025   0.00009  -0.00003
   2        2S         -0.08877   0.00025   0.00007  -0.00000   0.00020
   3        2PX        -0.01427   0.02453  -0.07512  -0.06573   0.14725
   4        2PY         0.03415  -0.01170  -0.03643  -0.06796   0.03919
   5        2PZ        -0.00916  -0.08084  -0.01754  -0.14631  -0.08441
   6        3S          1.30675   0.00206   0.00419  -0.00154   0.00028
   7        3PX        -0.21366   0.16804  -0.51502  -0.11308   0.25367
   8        3PY         0.50913  -0.07977  -0.24912  -0.11759   0.06771
   9        3PZ        -0.13756  -0.55410  -0.12025  -0.25179  -0.14538
  10        4XX        -0.17556  -0.23720   0.17197  -0.42016   0.11008
  11        4YY         0.37775  -0.07646  -0.23947   0.30507  -0.17633
  12        4ZZ        -0.24598   0.31350   0.06716   0.11523   0.06633
  13        4XY        -0.32763   0.01110  -0.24876  -0.07972  -0.44028
  14        4XZ         0.08963   0.11085  -0.12778  -0.50944   0.36351
  15        4YZ        -0.21147  -0.17405  -0.10255   0.41073   0.51532
  16 2   H  1S          0.00357  -0.02575  -0.00565   0.01672   0.00957
  17        2S         -0.19022   0.42902   0.09234   0.24437   0.14076
  18        3PX         0.01087  -0.19436   0.40948   0.44575  -0.42167
  19        3PY        -0.02871   0.19886   0.23409  -0.23436  -0.42274
  20        3PZ         0.18368  -0.13619  -0.02893  -0.17082  -0.09819
  21 3   H  1S          0.00353   0.01769  -0.01956   0.00009  -0.01926
  22        2S         -0.18963  -0.29555   0.32491   0.00007  -0.28206
  23        3PX         0.17158   0.24872  -0.00362   0.24112   0.10767
  24        3PY        -0.02820  -0.02522   0.30620   0.24928   0.41408
  25        3PZ        -0.06589   0.32268   0.24284   0.53610  -0.24118
  26 4   H  1S          0.00342   0.00806   0.02501  -0.01652   0.00959
  27        2S         -0.18746  -0.13459  -0.41910  -0.24393   0.14099
  28        3PX        -0.10062  -0.23084   0.13334  -0.49575  -0.11394
  29        3PY        -0.14071  -0.08924  -0.27846   0.18289  -0.10568
  30        3PZ        -0.06539   0.39434  -0.08812   0.05981   0.58465
  31 5   H  1S         -0.55142  -0.00071  -0.00123  -0.00001   0.00008
  32        2S         -1.14276  -0.00177  -0.00373   0.00155  -0.00020
  33        3PX        -0.13597  -0.20925   0.63818  -0.09727   0.21841
  34        3PY         0.31853   0.10058   0.31250  -0.10133   0.05832
  35        3PZ        -0.08833   0.68772   0.14852  -0.21710  -0.12543
  36 6   H  1S         -0.03295   0.00003   0.00007   0.00007  -0.00004
  37        2S          0.66304   0.00096   0.00188  -0.00068   0.00008
  38        3PX         0.28655   0.13512  -0.41067   0.06502  -0.14589
  39        3PY        -0.67334  -0.06549  -0.20247   0.06752  -0.03882
  40        3PZ         0.18580  -0.44295  -0.09538   0.14500   0.08371
                          36        37        38        39        40
                           V         V         V         V         V
     Eigenvalues --     3.19155   3.41150   3.41160   3.86719   4.50871
   1 1   C  1S         -0.14165  -0.00004   0.00003  -0.15545  -0.45440
   2        2S          1.06153   0.00018  -0.00025   0.79270   2.61650
   3        2PX         0.09796   0.85771   0.11091  -0.12183   0.00171
   4        2PY        -0.23172   0.30625   0.28843   0.28778  -0.00416
   5        2PZ         0.06366  -0.20812   0.88154  -0.07874   0.00107
   6        3S          0.90153   0.00031  -0.00005   0.52039   2.28192
   7        3PX         0.09497   0.47764   0.06172  -0.08802  -0.07954
   8        3PY        -0.22460   0.17062   0.16064   0.20839   0.18819
   9        3PZ         0.06172  -0.11596   0.49092  -0.05686  -0.05129
  10        4XX        -0.00120   0.61717  -0.69732  -0.82058  -1.94427
  11        4YY        -0.58914  -0.37062  -0.34872  -0.16536  -1.87732
  12        4ZZ         0.07382  -0.24677   1.04631  -0.90348  -1.95270
  13        4XY         0.35091  -0.40232  -0.44165  -0.38991  -0.04014
  14        4XZ        -0.09620  -0.86028  -0.14577   0.10662   0.01108
  15        4YZ         0.22672  -0.32868  -0.21246  -0.25192  -0.02593
  16 2   H  1S         -0.32433   0.17919  -0.75959   0.24546   0.22345
  17        2S         -0.36796   0.11447  -0.48513  -0.04191  -0.36813
  18        3PX         0.00837   0.11685   0.03354   0.00321   0.00257
  19        3PY        -0.01937   0.05318  -0.00165  -0.00768  -0.00622
  20        3PZ         0.71857  -0.26082   1.10560  -0.29218  -0.28858
  21 3   H  1S         -0.32411  -0.74748   0.22459   0.24555   0.22354
  22        2S         -0.36761  -0.47752   0.14347  -0.04186  -0.36805
  23        3PX         0.65830   1.00891  -0.25107  -0.26522  -0.26216
  24        3PY        -0.01948   0.00162   0.05329  -0.00756  -0.00621
  25        3PZ        -0.28716  -0.40946   0.23872   0.12287   0.12081
  26 4   H  1S         -0.32430   0.56810   0.53508   0.24552   0.22360
  27        2S         -0.36779   0.36289   0.34175  -0.04166  -0.36799
  28        3PX        -0.44441   0.56796   0.43651   0.18978   0.18695
  29        3PY        -0.48635   0.54984   0.51797   0.18543   0.18386
  30        3PZ        -0.28740   0.25934   0.39638   0.12273   0.12086
  31 5   H  1S          0.23453   0.00003  -0.00005   0.37469  -0.14435
  32        2S          0.23814  -0.00014  -0.00010  -0.21322  -0.83861
  33        3PX        -0.06579  -0.06125  -0.00783  -0.47869   0.23341
  34        3PY         0.15395  -0.02177  -0.02062   1.12872  -0.55029
  35        3PZ        -0.04274   0.01491  -0.06298  -0.30979   0.15105
  36 6   H  1S         -0.13698  -0.00005   0.00001  -0.55787   0.31857
  37        2S         -0.15998   0.00006   0.00008  -0.04614   0.32299
  38        3PX        -0.13754   0.00490   0.00063  -0.35990   0.16677
  39        3PY         0.32454   0.00182   0.00160   0.84786  -0.39261
  40        3PZ        -0.08899  -0.00125   0.00511  -0.23301   0.10801
     Beta Molecular Orbital Coefficients:
                           1         2         3         4         5
                           O         O         O         O         O
     Eigenvalues --   -10.18514  -0.67809  -0.40681  -0.40656  -0.40653
   1 1   C  1S          0.99310  -0.19493   0.02732  -0.00159  -0.00128
   2        2S          0.04843   0.37598  -0.05984   0.00348   0.00281
   3        2PX         0.00008   0.01179  -0.06610   0.39842   0.11098
   4        2PY        -0.00019  -0.02782   0.23630   0.11127   0.14377
   5        2PZ         0.00005   0.00764  -0.05085  -0.15094   0.40133
   6        3S         -0.01539   0.34451  -0.08558   0.00497   0.00400
   7        3PX         0.00041  -0.00023  -0.02819   0.17002   0.04737
   8        3PY        -0.00098   0.00055   0.10074   0.04748   0.06134
   9        3PZ         0.00027  -0.00014  -0.02170  -0.06440   0.17128
  10        4XX        -0.00845  -0.00588  -0.00147   0.01559  -0.01017
  11        4YY        -0.00911  -0.01469   0.01286  -0.00856  -0.01030
  12        4ZZ        -0.00836  -0.00476  -0.00338  -0.00749   0.02009
  13        4XY         0.00039   0.00526  -0.01030  -0.00873  -0.00884
  14        4XZ        -0.00011  -0.00144   0.00157  -0.01479  -0.00300
  15        4YZ         0.00025   0.00340  -0.00661  -0.00325  -0.00764
  16 2   H  1S         -0.00029   0.14806  -0.06485  -0.09867   0.26864
  17        2S          0.00254   0.05428  -0.05035  -0.08497   0.23029
  18        3PX        -0.00001   0.00010  -0.00162   0.00762   0.00187
  19        3PY         0.00003  -0.00024   0.00533   0.00183   0.00324
  20        3PZ         0.00026  -0.01304   0.00301   0.00253  -0.00714
  21 3   H  1S         -0.00029   0.14805  -0.05724   0.28490  -0.04080
  22        2S          0.00254   0.05428  -0.04383   0.24416  -0.03527
  23        3PX         0.00024  -0.01185   0.00184  -0.00681   0.00413
  24        3PY         0.00003  -0.00024   0.00534   0.00265   0.00257
  25        3PZ        -0.00012   0.00544  -0.00276   0.00334   0.00671
  26 4   H  1S         -0.00029   0.14805  -0.09221  -0.17381  -0.21771
  27        2S          0.00254   0.05428  -0.07383  -0.14945  -0.18708
  28        3PX        -0.00019   0.00842  -0.00520   0.00175  -0.00514
  29        3PY        -0.00015   0.00834   0.00154  -0.00446  -0.00549
  30        3PZ        -0.00012   0.00544  -0.00352  -0.00656   0.00289
  31 5   H  1S         -0.00001   0.10081   0.31861  -0.01847  -0.01506
  32        2S          0.00465   0.04113   0.34067  -0.01974  -0.01607
  33        3PX        -0.00007   0.00289  -0.00186   0.00575   0.00163
  34        3PY         0.00016  -0.00684   0.00552   0.00147   0.00195
  35        3PZ        -0.00004   0.00187  -0.00133  -0.00212   0.00577
  36 6   H  1S         -0.00026   0.03485   0.20953  -0.01217  -0.00993
  37        2S         -0.00162   0.01665   0.15543  -0.00905  -0.00741
  38        3PX        -0.00008   0.00173   0.00577   0.00076   0.00002
  39        3PY         0.00019  -0.00407  -0.01339   0.00112   0.00106
  40        3PZ        -0.00005   0.00112   0.00372  -0.00064   0.00093
                           6         7         8         9        10
                           V         V         V         V         V
     Eigenvalues --    -0.07377   0.12337   0.17514   0.17515   0.23983
   1 1   C  1S          0.05771  -0.14899  -0.00003  -0.00003   0.06264
   2        2S         -0.10186   0.18226   0.00003   0.00002  -0.06303
   3        2PX         0.15709   0.06478  -0.11762  -0.33768   0.07216
   4        2PY        -0.37086  -0.15287  -0.14256  -0.09944  -0.17141
   5        2PZ         0.10158   0.04186  -0.33912   0.15893   0.04658
   6        3S         -0.37509   2.35017   0.00029   0.00053  -1.01497
   7        3PX         0.16112   0.14917  -0.42568  -1.22211   0.44328
   8        3PY        -0.38045  -0.35204  -0.51586  -0.35984  -1.04843
   9        3PZ         0.10417   0.09643  -1.22717   0.57513   0.28660
  10        4XX         0.00159  -0.01712  -0.00959   0.00921  -0.00191
  11        4YY         0.00447  -0.01261  -0.00406  -0.00283   0.03750
  12        4ZZ         0.00122  -0.01768   0.01364  -0.00638  -0.00691
  13        4XY        -0.00173  -0.00269  -0.00749  -0.00176  -0.02343
  14        4XZ         0.00048   0.00074  -0.00678  -0.01299   0.00641
  15        4YZ        -0.00112  -0.00174  -0.00128  -0.00624  -0.01514
  16 2   H  1S          0.02741  -0.04133   0.09511  -0.04452  -0.06679
  17        2S          0.10521  -1.13051   1.63789  -0.76772  -0.03748
  18        3PX         0.00463   0.00249  -0.00449  -0.01269   0.00328
  19        3PY        -0.01093  -0.00588  -0.00522  -0.00382  -0.00776
  20        3PZ         0.00110  -0.00634   0.00358  -0.00168   0.00158
  21 3   H  1S          0.02740  -0.04138  -0.00895   0.10461  -0.06673
  22        2S          0.10520  -1.13073  -0.15414   1.80221  -0.03759
  23        3PX         0.00290  -0.00476  -0.00584   0.00367   0.00278
  24        3PY        -0.01093  -0.00588  -0.00539  -0.00358  -0.00777
  25        3PZ         0.00377   0.00487  -0.01214  -0.00146   0.00234
  26 4   H  1S          0.02736  -0.04136  -0.08613  -0.06002  -0.06651
  27        2S          0.10510  -1.13055  -1.48354  -1.03492  -0.03925
  28        3PX         0.00583   0.00754   0.00506  -0.00611   0.00366
  29        3PY        -0.00969  -0.00067   0.00422   0.00295  -0.00742
  30        3PZ         0.00377   0.00487  -0.00665   0.01027   0.00236
  31 5   H  1S         -0.01068   0.04430  -0.00015  -0.00008   0.30945
  32        2S         -0.01386  -0.21218  -0.00096  -0.00064   2.70928
  33        3PX        -0.00849  -0.00033  -0.00250  -0.00717   0.00053
  34        3PY         0.02003   0.00078  -0.00303  -0.00211  -0.00119
  35        3PZ        -0.00549  -0.00022  -0.00720   0.00337   0.00035
  36 6   H  1S          0.24999   0.04361   0.00002   0.00002   0.00202
  37        2S          0.61369   0.13341   0.00063   0.00043  -1.84192
  38        3PX         0.00223   0.00145  -0.00158  -0.00455   0.00567
  39        3PY        -0.00525  -0.00342  -0.00192  -0.00134  -0.01330
  40        3PZ         0.00145   0.00094  -0.00457   0.00214   0.00368
                          11        12        13        14        15
                           V         V         V         V         V
     Eigenvalues --     0.52034   0.52036   0.59041   0.72937   0.87574
   1 1   C  1S         -0.00001  -0.00001   0.02916  -0.04220   0.00000
   2        2S          0.00033   0.00011   0.02566  -0.00589   0.00007
   3        2PX        -0.18698  -0.65512   0.37412   0.07837   0.17601
   4        2PY        -0.26062  -0.20465  -0.88326  -0.18475   0.26766
   5        2PZ        -0.66232   0.26547   0.24207   0.05059   0.70531
   6        3S         -0.00025  -0.00009  -0.40001   0.05601  -0.00020
   7        3PX         0.38845   1.36194  -0.50000   0.07437  -0.29742
   8        3PY         0.54216   0.42587   1.18065  -0.17653  -0.45240
   9        3PZ         1.37654  -0.55204  -0.32373   0.04834  -1.19192
  10        4XX         0.03570  -0.04858   0.01716  -0.05144   0.12872
  11        4YY         0.02888   0.02271  -0.03946   0.00258   0.08418
  12        4ZZ        -0.06450   0.02589   0.02438  -0.05826  -0.21290
  13        4XY         0.03145   0.02584   0.03373  -0.03224   0.10203
  14        4XZ         0.01371   0.05059  -0.00925   0.00881   0.04980
  15        4YZ         0.02154   0.01515   0.02180  -0.02082   0.05572
  16 2   H  1S         -0.42905   0.17206   0.20041  -0.33224  -0.75787
  17        2S         -0.30059   0.12069   0.11304   0.04210   1.59049
  18        3PX         0.00692   0.02418  -0.00121   0.00229   0.01439
  19        3PY         0.00958   0.00760   0.00285  -0.00543   0.01741
  20        3PZ         0.03931  -0.01576  -0.00663  -0.03417  -0.09948
  21 3   H  1S          0.06582  -0.45770   0.20030  -0.33233   0.13852
  22        2S          0.04594  -0.32094   0.11278   0.04247  -0.29070
  23        3PX         0.00483   0.03865  -0.00654  -0.03024   0.03857
  24        3PY         0.00965   0.00752   0.00286  -0.00544   0.02063
  25        3PZ         0.02538  -0.01628   0.00160   0.01611   0.04142
  26 4   H  1S          0.36378   0.28575   0.20022  -0.33248   0.61925
  27        2S          0.25461   0.20043   0.11297   0.04231  -1.29959
  28        3PX         0.01485   0.03045   0.00249   0.02494  -0.06718
  29        3PY         0.01792   0.01408   0.00669   0.01793  -0.05968
  30        3PZ         0.02958  -0.00577   0.00161   0.01611   0.00107
  31 5   H  1S         -0.00047  -0.00026  -0.10508  -0.54050  -0.00001
  32        2S         -0.00067  -0.00040  -0.13276   0.87911   0.00004
  33        3PX         0.00964   0.03381  -0.03316   0.03012   0.00495
  34        3PY         0.01348   0.01058   0.07836  -0.07090   0.00746
  35        3PZ         0.03417  -0.01370  -0.02145   0.01952   0.01979
  36 6   H  1S         -0.00012  -0.00010   0.00473  -0.86055  -0.00010
  37        2S          0.00086   0.00053  -0.23259   0.47661   0.00009
  38        3PX         0.00641   0.02256   0.00270  -0.01417  -0.00266
  39        3PY         0.00906   0.00710  -0.00640   0.03340  -0.00407
  40        3PZ         0.02280  -0.00916   0.00173  -0.00917  -0.01068
                          16        17        18        19        20
                           V         V         V         V         V
     Eigenvalues --     0.87577   0.93013   0.96869   1.21338   1.38336
   1 1   C  1S         -0.00001   0.05970  -0.00504  -0.11525   0.00006
   2        2S          0.00019  -1.13569   0.07801  -1.99085   0.00103
   3        2PX         0.69524  -0.09907  -0.11184   0.09476  -0.04019
   4        2PY         0.22359   0.23451   0.26494  -0.22458  -0.00766
   5        2PZ        -0.25834  -0.06420  -0.07227   0.06117   0.03357
   6        3S         -0.00032   2.21543  -0.53571   5.36164  -0.00282
   7        3PX        -1.17499   0.24840   0.39292  -0.34770   0.02542
   8        3PY        -0.37778  -0.58786  -0.93027   0.82354   0.00440
   9        3PZ         0.43657   0.16082   0.25390  -0.22425  -0.02097
  10        4XX        -0.14829   0.02271   0.03750  -0.10324   0.10161
  11        4YY         0.07037  -0.07785  -0.14313  -0.07380  -0.11588
  12        4ZZ         0.07794   0.03558   0.06059  -0.10778   0.01438
  13        4XY         0.07580   0.06001   0.10768  -0.01837  -0.40631
  14        4XZ         0.17457  -0.01645  -0.02958   0.00574   0.16735
  15        4YZ         0.06122   0.03879   0.06966  -0.01190   0.49564
  16 2   H  1S          0.27746   0.51725   0.08377  -0.37786  -0.03260
  17        2S         -0.58225  -1.00280  -0.34663  -0.75397   0.03217
  18        3PX         0.05188  -0.00262  -0.01780  -0.00693   0.07340
  19        3PY         0.01782   0.00618   0.04191   0.01719   0.23217
  20        3PZ         0.03643   0.07772  -0.00279   0.00498  -0.00883
  21 3   H  1S         -0.79521   0.51701   0.08368  -0.37771   0.04947
  22        2S          1.66878  -1.00246  -0.34664  -0.75366  -0.04733
  23        3PX        -0.09317   0.06976  -0.00985   0.00171   0.04158
  24        3PY         0.01397   0.00617   0.04188   0.01721  -0.27113
  25        3PZ         0.04734  -0.03429  -0.01510  -0.00831   0.06011
  26 4   H  1S          0.51744   0.51723   0.08361  -0.37765  -0.01616
  27        2S         -1.08587  -1.00321  -0.34725  -0.75290   0.01626
  28        3PX        -0.01492  -0.05301  -0.02325  -0.01362   0.05924
  29        3PY        -0.04988  -0.04586   0.03610   0.01119   0.07277
  30        3PZ        -0.06288  -0.03429  -0.01506  -0.00874  -0.19713
  31 5   H  1S          0.00010  -0.02807  -1.14377   0.02821  -0.00003
  32        2S         -0.00042   0.40449   3.23722  -2.59944   0.00153
  33        3PX         0.01950   0.00973  -0.04399  -0.03843  -0.19950
  34        3PY         0.00626  -0.02268   0.10399   0.08924  -0.03875
  35        3PZ        -0.00724   0.00632  -0.02843  -0.02494   0.16711
  36 6   H  1S          0.00012  -0.55373   0.55200   0.42930  -0.00025
  37        2S          0.00007   0.31090  -1.80028   0.65101  -0.00043
  38        3PX        -0.01052   0.00751  -0.04101  -0.02368  -0.06975
  39        3PY        -0.00340  -0.01765   0.09686   0.05487  -0.01361
  40        3PZ         0.00392   0.00487  -0.02652  -0.01542   0.05846
                          21        22        23        24        25
                           V         V         V         V         V
     Eigenvalues --     1.38342   1.78941   1.78942   1.84353   2.00658
   1 1   C  1S          0.00021  -0.00016  -0.00021  -0.04912  -0.00001
   2        2S          0.00343  -0.00077  -0.00105   0.01388   0.00002
   3        2PX        -0.02832   0.07366   0.00717  -0.05415  -0.11483
   4        2PY        -0.02201   0.02717   0.02412   0.12737  -0.04303
   5        2PZ        -0.03892  -0.01554   0.07598  -0.03508   0.02046
   6        3S         -0.00955   0.00353   0.00472   0.57981   0.00007
   7        3PX         0.01854  -0.17568  -0.01742   0.10138   0.66154
   8        3PY         0.01206  -0.06427  -0.05684  -0.23845   0.24791
   9        3PZ         0.02494   0.03684  -0.18123   0.06568  -0.11787
  10        4XX         0.35165   0.13131  -0.01620   0.10439   0.31996
  11        4YY        -0.33485  -0.10926  -0.09722  -0.53580  -0.22460
  12        4ZZ        -0.01648  -0.02252   0.11282   0.18566  -0.09543
  13        4XY        -0.05534  -0.13972  -0.00933   0.38251  -0.25128
  14        4XZ         0.45315  -0.00579   0.06373  -0.10470  -0.42999
  15        4YZ        -0.29830   0.03375  -0.14618   0.24745  -0.16061
  16 2   H  1S          0.03864   0.01250  -0.06570  -0.24825   0.09291
  17        2S         -0.03565  -0.03057   0.14856  -0.02118   0.01281
  18        3PX         0.20954  -0.10113   0.09647  -0.05353  -0.31461
  19        3PY        -0.14347   0.02149  -0.27197   0.12726  -0.09848
  20        3PZ         0.01020   0.00559  -0.02865  -0.09968   0.04910
  21 3   H  1S          0.01023  -0.06345   0.01997  -0.24844  -0.51454
  22        2S         -0.00814   0.14385  -0.04843  -0.02097  -0.07032
  23        3PX         0.08852   0.00901  -0.03788  -0.11283  -0.26508
  24        3PY         0.03077  -0.26755   0.05442   0.12695  -0.20977
  25        3PZ         0.19052   0.08755  -0.10590  -0.00760   0.07359
  26 4   H  1S         -0.04661   0.04864   0.04268  -0.24897   0.42146
  27        2S          0.04697  -0.11402  -0.10106  -0.02037   0.05765
  28        3PX        -0.17599  -0.16625  -0.08452  -0.01141  -0.34004
  29        3PY         0.21022   0.15284   0.13550   0.16828  -0.03630
  30        3PZ        -0.03234  -0.03917  -0.13168  -0.00721   0.04103
  31 5   H  1S         -0.00053   0.00104   0.00139   0.29652   0.00010
  32        2S          0.00659  -0.00298  -0.00409  -0.48632  -0.00031
  33        3PX        -0.13963   0.51599   0.05034  -0.12301  -0.14875
  34        3PY        -0.11202   0.18973   0.16839   0.28655  -0.05573
  35        3PZ        -0.19280  -0.10879   0.53217  -0.08000   0.02651
  36 6   H  1S         -0.00081  -0.00066  -0.00082  -0.38540  -0.00012
  37        2S         -0.00218   0.00167   0.00223   0.47805   0.00026
  38        3PX        -0.04873   0.55055   0.05418   0.11243  -0.21612
  39        3PY        -0.03943   0.20133   0.17832  -0.26937  -0.08114
  40        3PZ        -0.06737  -0.11574   0.56774   0.07230   0.03867
                          26        27        28        29        30
                           V         V         V         V         V
     Eigenvalues --     2.00666   2.01499   2.31012   2.31020   2.51291
   1 1   C  1S         -0.00002   0.00000   0.00004  -0.00000   0.02343
   2        2S         -0.00007   0.00000   0.00034  -0.00001   0.23212
   3        2PX        -0.00773   0.00080   0.05966  -0.08319   0.03912
   4        2PY        -0.03577   0.00054   0.04725  -0.01576  -0.09220
   5        2PZ        -0.11878   0.00072   0.08020   0.07116   0.02529
   6        3S          0.00044  -0.00000  -0.00135   0.00010  -0.64356
   7        3PX         0.04449  -0.00454   0.03612  -0.04990   0.29135
   8        3PY         0.20616  -0.00304   0.02770  -0.00943  -0.68869
   9        3PZ         0.68412  -0.00409   0.04841   0.04272   0.18848
  10        4XX        -0.36849   0.00057  -0.06444   0.30926  -0.06982
  11        4YY        -0.18699   0.00273   0.29993  -0.10002   0.22062
  12        4ZZ         0.55539  -0.00330  -0.23564  -0.20924  -0.10699
  13        4XY        -0.20726   0.00305   0.20332  -0.23023  -0.17321
  14        4XZ        -0.02792   0.00293  -0.04678  -0.13398   0.04754
  15        4YZ        -0.13616   0.00197   0.23837   0.17195  -0.11209
  16 2   H  1S         -0.54048   0.00323   0.12142   0.10775   0.06562
  17        2S         -0.07366   0.00041  -0.15026  -0.13342  -0.04953
  18        3PX         0.02368   0.53641   0.02831   0.28331  -0.24660
  19        3PY        -0.19175   0.22843  -0.42381  -0.26645   0.58242
  20        3PZ        -0.28570   0.00174   0.12882   0.11442   0.03718
  21 3   H  1S          0.18956   0.00194   0.03249  -0.15905   0.06560
  22        2S          0.02586   0.00025  -0.04010   0.19691  -0.04946
  23        3PX        -0.03998  -0.21731  -0.02913  -0.25404  -0.06729
  24        3PY        -0.06472  -0.22457  -0.17916   0.46756   0.58233
  25        3PZ        -0.33310  -0.48552  -0.14860  -0.15295  -0.24025
  26 4   H  1S          0.35060  -0.00516  -0.15403   0.05133   0.06549
  27        2S          0.04770  -0.00066   0.19082  -0.06353  -0.04960
  28        3PX        -0.04572  -0.31259  -0.14008   0.16668  -0.37133
  29        3PY        -0.03026   0.00051   0.49173  -0.16380   0.45350
  30        3PZ        -0.33287   0.48965  -0.16958  -0.12923  -0.24023
  31 5   H  1S          0.00015  -0.00000   0.00042  -0.00003   0.07582
  32        2S         -0.00048   0.00001   0.00133  -0.00012   0.85076
  33        3PX        -0.01001   0.00099   0.18723  -0.26077   0.04709
  34        3PY        -0.04629   0.00066   0.14763  -0.04931  -0.11126
  35        3PZ        -0.15381   0.00089   0.25148   0.22297   0.03010
  36 6   H  1S         -0.00020   0.00000   0.00032  -0.00004  -0.02183
  37        2S          0.00041  -0.00000  -0.00078   0.00009  -0.27722
  38        3PX        -0.01433   0.00148  -0.30955   0.43136  -0.03402
  39        3PY        -0.06761   0.00100  -0.24493   0.08163   0.07963
  40        3PZ        -0.22354   0.00134  -0.41599  -0.36889  -0.02179
                          31        32        33        34        35
                           V         V         V         V         V
     Eigenvalues --     2.59009   2.65519   2.65535   2.83192   2.83204
   1 1   C  1S         -0.07038  -0.00019  -0.00034   0.00010  -0.00003
   2        2S         -0.03053   0.00033   0.00022  -0.00006   0.00021
   3        2PX        -0.01385   0.02903  -0.08963  -0.06334   0.13993
   4        2PY         0.03352  -0.01403  -0.04339  -0.06493   0.03699
   5        2PZ        -0.00884  -0.09643  -0.02069  -0.13894  -0.08114
   6        3S          1.25092   0.00283   0.00548  -0.00159   0.00027
   7        3PX        -0.19444   0.16515  -0.51072  -0.10747   0.23781
   8        3PY         0.46521  -0.07933  -0.24616  -0.11085   0.06304
   9        3PZ        -0.12493  -0.54920  -0.11796  -0.23586  -0.13785
  10        4XX        -0.17521  -0.24399   0.15231  -0.41947   0.12581
  11        4YY         0.37742  -0.07033  -0.21899   0.32088  -0.18324
  12        4ZZ        -0.24585   0.31413   0.06628   0.09875   0.05751
  13        4XY        -0.32684  -0.00646  -0.23209  -0.06822  -0.45458
  14        4XZ         0.08966   0.10239  -0.15433  -0.51379   0.35255
  15        4YZ        -0.21093  -0.14100  -0.10566   0.42214   0.52279
  16 2   H  1S         -0.00243  -0.02398  -0.00522   0.02017   0.01169
  17        2S         -0.19233   0.43145   0.09162   0.22941   0.13374
  18        3PX         0.00072  -0.18405   0.42857   0.44090  -0.39975
  19        3PY        -0.00608   0.16783   0.23397  -0.24425  -0.42098
  20        3PZ         0.20158  -0.14988  -0.03128  -0.16344  -0.09505
  21 3   H  1S         -0.00247   0.01640  -0.01825   0.00021  -0.02331
  22        2S         -0.19151  -0.29654   0.32715   0.00148  -0.26557
  23        3PX         0.18359   0.25885  -0.00503   0.23216   0.10006
  24        3PY        -0.00555   0.00128   0.28805   0.23837   0.42428
  25        3PZ        -0.08260   0.32232   0.26505   0.51870  -0.23864
  26 4   H  1S         -0.00261   0.00754   0.02322  -0.02008   0.01150
  27        2S         -0.18857  -0.13644  -0.42131  -0.23031   0.13152
  28        3PX        -0.12543  -0.24821   0.11057  -0.48936  -0.10592
  29        3PY        -0.13323  -0.08504  -0.26312   0.19438  -0.11097
  30        3PZ        -0.08160   0.40273  -0.11058   0.04736   0.56883
  31 5   H  1S         -0.52459  -0.00106  -0.00183   0.00001   0.00008
  32        2S         -1.08270  -0.00241  -0.00479   0.00158  -0.00019
  33        3PX        -0.14276  -0.20105   0.61745  -0.10645   0.23564
  34        3PY         0.33251   0.09822   0.30243  -0.10990   0.06249
  35        3PZ        -0.09301   0.66533   0.14196  -0.23405  -0.13683
  36 6   H  1S         -0.05822  -0.00003  -0.00005   0.00007  -0.00004
  37        2S          0.64275   0.00137   0.00257  -0.00070   0.00007
  38        3PX         0.27923   0.14427  -0.44114   0.07619  -0.16856
  39        3PY        -0.65443  -0.07122  -0.21794   0.07845  -0.04457
  40        3PZ         0.18131  -0.47588  -0.10115   0.16741   0.09780
                          36        37        38        39        40
                           V         V         V         V         V
     Eigenvalues --     3.20149   3.41901   3.41911   3.90659   4.53255
   1 1   C  1S         -0.13795  -0.00004   0.00003  -0.15863  -0.45357
   2        2S          1.04962   0.00018  -0.00025   0.82684   2.61703
   3        2PX         0.10100   0.85750   0.11052  -0.12172   0.00124
   4        2PY        -0.23891   0.30628   0.28822   0.28752  -0.00305
   5        2PZ         0.06563  -0.20769   0.88137  -0.07868   0.00077
   6        3S          0.87102   0.00031  -0.00005   0.51661   2.27433
   7        3PX         0.10045   0.47610   0.06131  -0.08339  -0.07944
   8        3PY        -0.23759   0.17013   0.16005   0.19744   0.18795
   9        3PZ         0.06527  -0.11538   0.48936  -0.05387  -0.05122
  10        4XX         0.01458   0.62075  -0.70027  -0.82684  -1.94162
  11        4YY        -0.59974  -0.37341  -0.35105  -0.17936  -1.87575
  12        4ZZ         0.09296  -0.24755   1.05158  -0.90878  -1.94991
  13        4XY         0.36664  -0.40570  -0.44327  -0.38531  -0.03950
  14        4XZ        -0.10050  -0.86356  -0.14515   0.10537   0.01091
  15        4YZ         0.23688  -0.32949  -0.21490  -0.24895  -0.02552
[...]
      X                                                   X                 X          X                                             
      X                                                   X                 X                                                        
      X                                                   X                                                                          
      X                                                   X                                                                          
      X                                                   X                                                                          
      X                                                   X                                                                          
      X                                                   X                                                                          
      X                                                   X                                                                          
      X                                                   X                                                                          
      X                                                   X                                                                          
      X                                                   X                                                                          
      X                                                   X                                                                          
      X                                                   X                                                                          
      X                                                   X                                                                          
      X                                                   X                                                                          
      X                                                                                                                              
 
 -------------------------------------------------------------------
 Center     Atomic                   Forces (Hartrees/Bohr)
 Number     Number              X              Y              Z
 -------------------------------------------------------------------
      1        6          -0.000001384    0.000011863   -0.000002054
      2        1          -0.000003112    0.000003550   -0.000000070
      3        1          -0.000000527   -0.000005190   -0.000000481
      4        1           0.000000299    0.000000448   -0.000000494
      5        1           0.000004652   -0.000010532    0.000003042
      6        1           0.000000072   -0.000000139    0.000000057
 -------------------------------------------------------------------
 Cartesian Forces:  Max     0.000011863 RMS     0.000004340
 -----------------------------------------------------------------------------------------------
                       Internal Coordinate Forces (Hartree/Bohr or radian)
  Cent   Atom   N1       Length/X         N2         Alpha/Y        N3         Beta/Z          J
 -----------------------------------------------------------------------------------------------
      1  C 
      2  H        1  -0.000000(     1)
      3  H        1  -0.000000(     2)      2   0.000001(     7)
      4  H        1  -0.000000(     3)      2   0.000001(     8)      3   0.000000(    12)     0
      5  H        1  -0.000012(     4)      2  -0.000001(     9)      3   0.000001(    13)     0
         X        5   0.000000(     5)      1  -0.000000(    10)      4  -0.000000(    14)     0
      6  H        5  -0.000000(     6)      6  -0.000000(    11)      1   0.000000(    15)     0
 -----------------------------------------------------------------------------------------------
 Internal  Forces:  Max     0.000012063 RMS     0.000003179
 Force constants in Cartesian coordinates: 
                1             2             3             4             5 
      1  0.523634D+00
      2  0.156148D+00  0.195503D+00
      3 -0.398848D-01  0.997679D-01  0.560657D+00
      4 -0.474933D-01 -0.101078D-01 -0.154606D-02  0.428765D-01
      5 -0.101212D-01 -0.261964D-01  0.385306D-02  0.707365D-02  0.279552D-01
      6  0.304065D-02 -0.760468D-02 -0.343187D+00 -0.166301D-02  0.417245D-02
      7 -0.290399D+00 -0.111836D-01  0.115494D+00  0.406863D-02 -0.122371D-03
      8 -0.790805D-03 -0.261887D-01 -0.108071D-01 -0.112443D-02  0.127513D-02
      9  0.110931D+00 -0.599631D-02 -0.100265D+00  0.280843D-01 -0.119205D-02
     10 -0.170792D+00 -0.126424D+00 -0.762175D-01  0.211630D-02  0.924290D-03
     11 -0.136821D+00 -0.145802D+00 -0.874503D-01  0.192982D-02  0.322628D-02
     12 -0.762236D-01 -0.808004D-01 -0.100251D+00 -0.195329D-01 -0.202216D-01
     13 -0.714755D-02 -0.412073D-01  0.105293D-01 -0.182372D-02  0.347708D-02
     14 -0.411916D-01  0.794119D-01 -0.263236D-01  0.346103D-02 -0.910722D-02
     15  0.105136D-01 -0.263284D-01 -0.168911D-01 -0.584007D-02  0.146338D-01
     16 -0.780303D-02  0.327741D-01 -0.837489D-02  0.255542D-03 -0.123145D-02
     17  0.327761D-01 -0.767278D-01  0.209601D-01 -0.123230D-02  0.284705D-02
     18 -0.837729D-02  0.209619D-01 -0.626016D-04  0.497763D-03 -0.124562D-02
                6             7             8             9            10 
      6  0.360263D+00
      7 -0.316687D-02  0.302967D+00
      8  0.386030D-03  0.678061D-02  0.279674D-01
      9 -0.746499D-02 -0.122075D+00  0.468818D-02  0.100175D+00
     10  0.202733D-02 -0.124542D-01 -0.179619D-01 -0.127933D-01  0.179030D+00
     11  0.246688D-02  0.304504D-02  0.322559D-02  0.716790D-03  0.136965D+00
     12 -0.746933D-02  0.877628D-02  0.933196D-02  0.709935D-02  0.852037D-01
     13 -0.171369D-03 -0.505878D-02  0.147436D-01 -0.435728D-02  0.129360D-02
     14  0.413225D-03  0.184959D-02 -0.913024D-02  0.297160D-02  0.807109D-02
     15 -0.295120D-02  0.132373D-02 -0.300166D-02  0.265977D-03  0.111252D-02
     16 -0.667381D-04  0.876039D-03 -0.164701D-02  0.210090D-03  0.805978D-03
     17  0.166086D-03 -0.369241D-03  0.285081D-02 -0.118821D-02 -0.157486D-02
     18  0.809496D-03 -0.351972D-03 -0.597434D-03  0.189822D-03  0.667247D-03
               11            12            13            14            15 
     11  0.151879D+00
     12  0.875403D-01  0.100167D+00
     13 -0.482554D-02  0.110977D-02  0.295466D-01
     14 -0.154471D-01  0.515653D-02  0.215511D-01 -0.157548D-01
     15 -0.308505D-02  0.264722D-03 -0.551139D-02  0.137807D-01  0.346436D-01
     16 -0.293588D-03  0.666643D-03 -0.168101D-01  0.625873D-02 -0.159842D-02
     17  0.291828D-02 -0.100681D-02  0.626105D-02 -0.299725D-01  0.400056D-02
     18 -0.188641D-03  0.189516D-03 -0.159907D-02  0.400150D-02 -0.153320D-01
               16            17            18 
     16  0.226756D-01
     17 -0.358608D-01  0.980842D-01
     18  0.916331D-02 -0.229317D-01  0.142057D-01
 Force constants in internal coordinates: 
                1             2             3             4             5 
      1  0.360263D+00
      2  0.261921D-03  0.360255D+00
      3  0.262034D-03  0.263772D-03  0.360215D+00
      4  0.110384D-02  0.111906D-02  0.110043D-02  0.233903D-01
      5  0.000000D+00  0.000000D+00  0.000000D+00  0.000000D+00  0.000000D+00
      6 -0.127403D-04 -0.147886D-04 -0.132754D-04  0.847783D-01  0.000000D+00
      7  0.166542D-01  0.346326D-02 -0.115263D-01 -0.786548D-02  0.000000D+00
      8  0.166643D-01 -0.115325D-01  0.345145D-02 -0.784683D-02  0.000000D+00
      9  0.377415D-02 -0.190288D-02 -0.188047D-02  0.343679D-05  0.000000D+00
     10 -0.903462D-03  0.137681D-02 -0.475391D-03  0.000000D+00  0.000000D+00
     11 -0.903462D-03  0.137681D-02 -0.475391D-03  0.000000D+00  0.000000D+00
     12  0.726488D-03  0.109462D-01  0.777090D-02 -0.178159D-01  0.000000D+00
     13 -0.164366D-04 -0.319976D-02  0.317021D-02  0.162194D-04  0.000000D+00
     14  0.000000D+00  0.000000D+00  0.000000D+00  0.000000D+00  0.000000D+00
     15  0.107009D-02  0.246953D-03 -0.131727D-02 -0.313834D-05  0.000000D+00
                6             7             8             9            10 
      6  0.118274D+00
      7  0.271599D-02  0.181090D+00
      8  0.271656D-02  0.580971D-01  0.181046D+00
      9  0.843671D-05  0.860967D-02  0.857635D-02  0.974099D-01
     10 -0.143004D-05 -0.808027D-03 -0.484334D-03 -0.197448D-02  0.238211D-01
     11 -0.143004D-05 -0.808027D-03 -0.484334D-03 -0.197448D-02  0.238211D-01
     12  0.616508D-02 -0.498416D-01 -0.271705D-01  0.291426D-01  0.793240D-03
     13  0.739798D-05  0.227076D-01 -0.226807D-01  0.224417D-04 -0.227751D-02
     14  0.000000D+00  0.000000D+00  0.000000D+00  0.000000D+00  0.000000D+00
     15 -0.123109D-05  0.628928D-03  0.907451D-03  0.234513D-02 -0.111461D-05
               11            12            13            14            15 
     11  0.238211D-01
     12  0.793240D-03  0.973076D-01
     13 -0.227751D-02 -0.460787D-01  0.922038D-01
     14  0.000000D+00  0.000000D+00  0.000000D+00  0.000000D+00
     15 -0.111479D-05  0.137496D-02 -0.192320D-02  0.000000D+00  0.238190D-01
 Leave Link  716 at Fri Sep 13 21:49:08 2024, MaxMem=   268435456 cpu:         0.2
 (Enter /g100_work/pMI24_ChiCa/g09d1/g09d01/d01/build-node-6-2-59348/src/main/l103.exe)

 GradGradGradGradGradGradGradGradGradGradGradGradGradGradGradGradGradGrad
 Berny optimization.
 Search for a saddle point.
 Step number   1 out of a maximum of    2
 All quantities printed in internal units (Hartrees-Bohrs-Radians)
 Swapping is turned off.
 Second derivative matrix not updated -- analytic derivatives used.
 The second derivative matrix:
                          hc2       hc3      hch3       hc4      hch4
           hc2          0.36026
           hc3          0.00026   0.36025
           hch3         0.01665   0.00346   0.18109
           hc4          0.00026   0.00026  -0.01153   0.36021
           hch4         0.01666  -0.01153   0.05810   0.00345   0.18105
           dih4         0.00073   0.01095  -0.04984   0.00777  -0.02717
           hc5          0.00110   0.00112  -0.00787   0.00110  -0.00785
           hch5         0.00377  -0.00190   0.00861  -0.00188   0.00858
           dih5        -0.00002  -0.00320   0.02271   0.00317  -0.02268
           xxh6         0.00000  -0.00000   0.00000   0.00000  -0.00000
           xxhc6       -0.00090   0.00138  -0.00081  -0.00048  -0.00048
           dih6        -0.00000   0.00000  -0.00000   0.00000  -0.00000
           hh7         -0.00001  -0.00001   0.00272  -0.00001   0.00272
           hhxx7       -0.00090   0.00138  -0.00081  -0.00048  -0.00048
           dih7         0.00107   0.00025   0.00063  -0.00132   0.00091
                         dih4       hc5      hch5      dih5      xxh6
           dih4         0.09731
           hc5         -0.01782   0.02339
           hch5         0.02914   0.00000   0.09741
           dih5        -0.04608   0.00002   0.00002   0.09220
           xxh6         0.00000   0.00000  -0.00000   0.00000  -0.00000
           xxhc6        0.00079  -0.00000  -0.00197  -0.00228  -0.00000
           dih6        -0.00000   0.00000  -0.00000   0.00000   0.00000
           hh7          0.00617   0.08478   0.00001   0.00001   0.00000
           hhxx7        0.00079  -0.00000  -0.00197  -0.00228  -0.00000
           dih7         0.00137  -0.00000   0.00235  -0.00192  -0.00000
                         xxhc6     dih6       hh7      hhxx7     dih7
           xxhc6        0.02382
           dih6         0.00000   0.00000
           hh7         -0.00000   0.00000   0.11827
           hhxx7        0.02382   0.00000  -0.00000   0.02382
           dih7        -0.00000  -0.00000  -0.00000  -0.00000   0.02382
 ITU=  0
     Eigenvalues ---   -0.03159   0.02365   0.02368   0.03477   0.08120
     Eigenvalues ---    0.11385   0.16232   0.16898   0.25393   0.36093
     Eigenvalues ---    0.36136   0.366011000.000001000.000001000.00000
 Eigenvectors required to have negative eigenvalues:
                          hc5       hh7      dih4      dih5      hch3
   1                    0.83632  -0.48440   0.21956   0.07995   0.06690
                         hch4      hch5       hc2       hc3       hc4
   1                    0.05800  -0.05787  -0.00752  -0.00704  -0.00618
 Angle between quadratic step and forces= 124.45 degrees.
 Linear search not attempted -- option 19 set.
 Variable       Old X    -DE/DX   Delta X   Delta X   Delta X     New X
                                 (Linear)    (Quad)   (Total)
   hc2        2.05487  -0.00000   0.00000  -0.00000  -0.00000   2.05486
   hc3        2.05488  -0.00000   0.00000  -0.00000  -0.00000   2.05487
   hch3       2.00432   0.00000   0.00000   0.00004   0.00004   2.00436
   hc4        2.05487  -0.00000   0.00000  -0.00000  -0.00000   2.05487
   hch4       2.00437   0.00000   0.00000   0.00004   0.00004   2.00441
   dih4       2.38102   0.00000   0.00000   0.00014   0.00014   2.38116
   hc5        2.66836  -0.00001   0.00000   0.00021   0.00021   2.66857
   hch5       1.80377  -0.00000   0.00000  -0.00006  -0.00006   1.80371
   dih5      -1.95099   0.00000   0.00000   0.00008   0.00008  -1.95091
   xxh6       1.88973   0.00000   0.00000   0.00000   0.00000   1.88973
  xxhc6       1.57019  -0.00000   0.00000   0.00000   0.00000   1.57019
   dih6       1.22442  -0.00000   0.00000   0.00000   0.00000   1.22442
   hh7        1.68946  -0.00000   0.00000  -0.00016  -0.00016   1.68929
  hhxx7       1.57144  -0.00000   0.00000   0.00000   0.00000   1.57144
   dih7       3.14161   0.00000   0.00000   0.00000   0.00000   3.14161
         Item               Value     Threshold  Converged?
 Maximum Force            0.000012     0.000450     YES
 RMS     Force            0.000004     0.000300     YES
 Maximum Displacement     0.000215     0.001800     YES
 RMS     Displacement     0.000084     0.001200     YES
 Predicted change in Energy= 1.137198D-09
 Optimization completed.
    -- Stationary point found.
                       ----------------------------
                       !   Optimized Parameters   !
                       ! (Angstroms and Degrees)  !
 ----------------------                            ----------------------
 !      Name          Value   Derivative information (Atomic Units)     !
 ------------------------------------------------------------------------
 !       hc2         1.0874   -DE/DX =    0.0                           !
 !       hc3         1.0874   -DE/DX =    0.0                           !
 !      hch3       114.8391   -DE/DX =    0.0                           !
 !       hc4         1.0874   -DE/DX =    0.0                           !
 !      hch4       114.8419   -DE/DX =    0.0                           !
 !      dih4       136.4225   -DE/DX =    0.0                           !
 !       hc5         1.412    -DE/DX =    0.0                           !
 !      hch5       103.3483   -DE/DX =    0.0                           !
 !      dih5      -111.7837   -DE/DX =    0.0                           !
 !      xxh6         1.0      -DE/DX =    0.0                           !
 !      xxhc6       89.9651   -DE/DX =    0.0                           !
 !      dih6        70.1542   -DE/DX =    0.0                           !
 !       hh7         0.894    -DE/DX =    0.0                           !
 !      hhxx7       90.0369   -DE/DX =    0.0                           !
 !      dih7       180.0008   -DE/DX =    0.0                           !
 ------------------------------------------------------------------------
 GradGradGradGradGradGradGradGradGradGradGradGradGradGradGradGradGradGrad

 Leave Link  103 at Fri Sep 13 21:49:08 2024, MaxMem=   268435456 cpu:         0.1
 (Enter /g100_work/pMI24_ChiCa/g09d1/g09d01/d01/build-node-6-2-59348/src/main/l9999.exe)
 1\1\GINC-R500N001\Freq\UB3LYP\6-31G(d,p)\C1H5(2)\ECABIATI\13-Sep-2024\
 1\\#P Geom=AllCheck Guess=TCheck SCRF=Check GenChk UB3LYP/6-31G(d,p) F
 req\\ch4+h to ch3+h2 ts\\0,2\C\H,1,hc2\H,1,hc3,2,hch3\H,1,hc4,2,hch4,3
 ,dih4,0\H,1,hc5,2,hch5,3,dih5,0\X,5,xxh6,1,xxhc6,4,dih6,0\H,5,hh7,6,hh
 xx7,1,dih7,0\\hc2=1.08738774\hc3=1.08739521\hch3=114.83910584\hc4=1.08
 739068\hch4=114.84190016\dih4=136.42247665\hc5=1.41203335\hch5=103.348
 28334\dih5=-111.7836775\hh7=0.89402174\hhxx7=90.03687391\dih7=180.0007
 977\xxh6=1.\xxhc6=89.9651\dih6=70.1542\\Version=EM64L-G09RevD.01\HF=-4
 1.0094787\S2=0.758046\S2-1=0.\S2A=0.750021\RMSD=3.776e-10\RMSF=4.340e-
 06\ZeroPoint=0.0430118\Thermal=0.0463257\Dipole=0.1080786,-0.2704009,0
 .0690896\DipoleDeriv=0.044854,0.0159302,-0.0040595,0.0159789,0.0112508
 ,0.0102076,-0.004108,0.0102105,0.048605,0.0570078,0.0089449,-0.0105577
 ,0.0089436,0.0381818,0.0263884,0.0037926,-0.0094224,-0.0867201,-0.0639
 652,-0.0047481,0.059758,0.0276851,0.0382369,-0.0029802,0.0454713,0.012
 057,0.0342534,-0.003954,-0.0353133,-0.0412594,-0.067819,-0.0217706,-0.
 0433285,-0.0412549,-0.0225597,0.0342235,0.0225312,-0.0195233,0.0049847
 ,-0.0194882,0.0635764,-0.0124847,0.0049669,-0.0124873,0.0179204,-0.056
 4739,0.0347097,-0.008866,0.0346995,-0.1294752,0.0221975,-0.0088679,0.0
 22202,-0.0482822\Polar=14.9485698,-5.159,25.7976389,1.3184791,-3.29958
 61,13.7301313\PG=C01 [X(C1H5)]\NImag=1\\0.52363407,0.15614817,0.195503
 07,-0.03988480,0.09976787,0.56065711,-0.04749329,-0.01010778,-0.001546
 06,0.04287654,-0.01012120,-0.02619640,0.00385306,0.00707365,0.02795517
 ,0.00304065,-0.00760468,-0.34318727,-0.00166301,0.00417245,0.36026329,
 -0.29039855,-0.01118362,0.11549391,0.00406863,-0.00012237,-0.00316687,
 0.30296690,-0.00079080,-0.02618873,-0.01080709,-0.00112443,0.00127513,
 0.00038603,0.00678061,0.02796745,0.11093135,-0.00599631,-0.10026496,0.
 02808425,-0.00119205,-0.00746499,-0.12207508,0.00468818,0.10017480,-0.
 17079165,-0.12642361,-0.07621750,0.00211630,0.00092429,0.00202733,-0.0
 1245423,-0.01796193,-0.01279333,0.17903000,-0.13682075,-0.14580203,-0.
 08745030,0.00192982,0.00322628,0.00246688,0.00304504,0.00322559,0.0007
 1679,0.13696503,0.15187902,-0.07622356,-0.08080038,-0.10025118,-0.0195
 3288,-0.02022162,-0.00746933,0.00877628,0.00933196,0.00709935,0.085203
 75,0.08754032,0.10016692,-0.00714755,-0.04120726,0.01052934,-0.0018237
 2,0.00347708,-0.00017137,-0.00505878,0.01474356,-0.00435728,0.00129360
 ,-0.00482554,0.00110977,0.02954659,-0.04119155,0.07941192,-0.02632359,
 0.00346103,-0.00910722,0.00041322,0.00184959,-0.00913024,0.00297160,0.
 00807109,-0.01544714,0.00515653,0.02155112,-0.01575477,0.01051364,-0.0
 2632838,-0.01689109,-0.00584007,0.01463378,-0.00295120,0.00132373,-0.0
 0300166,0.00026598,0.00111252,-0.00308505,0.00026472,-0.00551139,0.013
 78075,0.03464355,-0.00780303,0.03277411,-0.00837489,0.00025554,-0.0012
 3145,-0.00006674,0.00087604,-0.00164701,0.00021009,0.00080598,-0.00029
 359,0.00066664,-0.01681014,0.00625873,-0.00159842,0.02267562,0.0327761
 5,-0.07672782,0.02096005,-0.00123230,0.00284705,0.00016609,-0.00036924
 ,0.00285081,-0.00118821,-0.00157486,0.00291828,-0.00100681,0.00626105,
 -0.02997255,0.00400056,-0.03586079,0.09808422,-0.00837729,0.02096188,-
 0.00006260,0.00049776,-0.00124562,0.00080950,-0.00035197,-0.00059743,0
 .00018982,0.00066725,-0.00018864,0.00018952,-0.00159907,0.00400150,-0.
 01533195,0.00916331,-0.02293168,0.01420572\\0.00000138,-0.00001186,0.0
 0000205,0.00000311,-0.00000355,0.00000007,0.00000053,0.00000519,0.0000
 0048,-0.00000030,-0.00000045,0.00000049,-0.00000465,0.00001053,-0.0000
 0304,-0.00000007,0.00000014,-0.00000006\\\@


 THERE ARE TWO THINGS THAT EVERYBODY THINKS THEY CAN DO BETTER THAN
 ANYONE ELSE - PUNCH THE FIRE, AND EDIT A DAILY PAPER.
 -- UNCLE ESEK, "CENTURY MAGAZINE", 1885
 Job cpu time:       0 days  0 hours  0 minutes 33.7 seconds.
 File lengths (MBytes):  RWF=      5 Int=      0 D2E=      0 Chk=      4 Scr=      1
 Normal termination of Gaussian 09 at Fri Sep 13 21:49:08 2024.
