
 Primary working directories    : /data/scratch
 Secondary working directories  : /data/scratch
 Wavefunction directory         : /home/ospite/wfu/
 Main file repository           : /data/scratch/

 ARCHNAME  : Linux/x86_64
 FC        : /usr/bin/gfortran
 FCVERSION : 4.8.5
 BLASLIB   : 
 id        : polimi

 Nodes     nprocs
 molmod       1

 Using default tuning parameters: mindgm=1; mindgv=20; mindgc=4; mindgr=1; noblas=0; mincuda=1000; minvec=7
 default implementation of scratch files=df  

 ***,methyl with imposed symmetry and 6-31+G basis set
 memory,100,m
 
 basis=6-31+G
 symmetry,y
 
 geometry={angstrom
 C
 H1, C, d
 H2, C, d, H1, a
 H3, C, d, H1, -a, H2, t
 }
 
 d=1.09 Ang
 a=120. Deg
 t=0.0 Deg
 
 {dfunc,b3lyp}
 ks
 optg
 frequencies
 put,molden,ch4_6-31+G.molpro

 Variables initialized (661), CPU time= 0.01 sec
 Commands  initialized (458), CPU time= 0.05 sec, 486 directives.
 Default parameters read. Elapsed time= 0.27 sec

 Checking input...
 Passed
1


                                         ***  PROGRAM SYSTEM MOLPRO  ***
                         Copyright, University College Cardiff Consultants Limited, 2008

                                    Version 2010.1 linked Mar  6 2018 16:01:50


 **********************************************************************************************************************************
 LABEL *   methyl with imposed symmetry and 6-31+G basis set                             
 Linux-3.10.0-1160.108.1.el7.x86_64/molmod(x86_64) 64 bit serial version                 DATE: 17-Aug-24          TIME: 18:16:58  
 **********************************************************************************************************************************

 SHA1:             d90fb18d49a3be29a79769f900c595ef3b8176e2
 **********************************************************************************************************************************

 Variable memory set to  100000000 words,  buffer space   230000 words

 SETTING BASIS          =    6-31+G
 ZSYMEL=Y  

 SETTING D              =         1.09000000  ANG                             
 SETTING A              =       120.00000000  DEG                             
 SETTING T              =         0.00000000  DEG                             


 Recomputing integrals since basis changed


 Using spherical harmonics

 Library entry C      S 6-31G                selected for orbital group  1
 Library entry C      S 6-31++G              selected for orbital group  1
 Library entry C      P 6-31G                selected for orbital group  1
 Library entry C      P 6-31++G              selected for orbital group  1
 Library entry H      S 6-31G                selected for orbital group  2

1PROGRAM * SEWARD (Integral evaluation for generally contracted gaussian basis sets)     Author: Roland Lindh, 1990

 Geometry written to block  1 of record 700

 Orientation using atomic masses  
 Molecule type: Symmetric top,     Order of principal axis = 3
 User-specified symmetry elements: Y
 Symmetry elements: Y
 Rotational constants:     281.3443841    281.3443841    140.6721920 GHz  (calculated with average atomic masses)

 Point group  Cs  



 ATOMIC COORDINATES

 NR  ATOM    CHARGE       X              Y              Z

   1  C       6.00   -0.000000000    0.000000000    0.000000000
   2  H1      1.00    2.059801483    0.000000000    0.000000000
   3  H2      1.00   -1.029900742   -1.783840411    0.000000000
   4  H3      1.00   -1.029900742    1.783840411    0.000000000

 Bond lengths in Bohr (Angstrom)

 1-2  2.059801483  1-3  2.059801483  1-4  2.059801483
     ( 1.090000000)     ( 1.090000000)     ( 1.090000000)

 Bond angles

  2-1-3  120.00000000   2-1-4  120.00000000   3-1-4  120.00000000

 NUCLEAR CHARGE:                    9
 NUMBER OF PRIMITIVE AOS:          38
 NUMBER OF SYMMETRY AOS:           38
 NUMBER OF CONTRACTIONS:           19   (  14A'  +   5A"  )
 NUMBER OF CORE ORBITALS:           1   (   1A'  +   0A"  )
 NUMBER OF VALENCE ORBITALS:        7   (   5A'  +   2A"  )


 NUCLEAR REPULSION ENERGY    9.57958860

 EXTRA SYMMETRY OF AOS IN SYMMETRY 1:   1 1 1 1 1 2 1 2 1 2   1 1 1 1

 Eigenvalues of metric

         1 0.302E-01 0.614E-01 0.120E+00 0.234E+00 0.259E+00 0.534E+00 0.544E+00 0.638E+00
         2 0.614E-01 0.234E+00 0.544E+00 0.908E+00 0.288E+01


 Contracted 2-electron integrals neglected if value below      1.0D-11
 AO integral compression algorithm  1   Integral accuracy      1.0D-11

     0.262 MB (compressed) written to integral file (100.0%)


 NUMBER OF SORTED TWO-ELECTRON INTEGRALS:      10410.     BUFFER LENGTH:  32768
 NUMBER OF SEGMENTS:   1  SEGMENT LENGTH:      10410      RECORD LENGTH: 524288

 Memory used in sort:       0.57 MW

 SORT1 READ       17039. AND WROTE        5961. INTEGRALS IN      1 RECORDS. CPU TIME:     0.00 SEC, REAL TIME:     0.01 SEC
 SORT2 READ        5961. AND WROTE       10410. INTEGRALS IN      1 RECORDS. CPU TIME:     0.02 SEC, REAL TIME:     0.02 SEC

 FILE SIZES:   FILE 1:     2.8 MBYTE,  FILE 4:     4.2 MBYTE,   TOTAL:      7.1 MBYTE

 OPERATOR DM      FOR CENTER  0  COORDINATES:    0.000000    0.000000    0.000000


 **********************************************************************************************************************************
 DATASETS  * FILE   NREC   LENGTH (MB)   RECORD NAMES
              1      19        2.62       500      610      700      900      950      970     1000      129      960     1100   
                                          VAR    BASINP    GEOM    SYMINP    ZMAT    AOBASIS   BASIS     P2S    ABASIS      S 
                                         1400     1410     1200     1210     1080     1600     1650     1300     1700   
                                           T        V       H0       H01     AOSYM     SMH    MOLCAS    ERIS     OPER   

 PROGRAMS   *        TOTAL       INT
 CPU TIMES  *         0.65      0.14
 REAL TIME  *         1.00 SEC
 DISK USED  *         7.57 MB      
 **********************************************************************************************************************************

 Density functional group B3LYP=B88+DIRAC+LYP+VWN5
 Functional: B88(Automatically generated B88)                                  Gradient terms: 1
 Functional: DIRAC(Automatically generated DIRAC)                              Gradient terms: 0
 Functional: LYP(Lee-Yang-Parr gradient-corrected correlation energy (1988))   Gradient terms: 1
 Functional: VWN5(Automatically generated VWN5)                                Gradient terms: 0
 Use grid at  1800.2


 Exact exchange will be calculated, factor:  0.2000

 Functional: B88                       Factor:  0.7200
 Functional: DIRAC                     Factor:  0.0800
 Functional: LYP                       Factor:  0.8100
 Functional: VWN5                      Factor:  0.1900

 Generated new metagrid on record  1800.2 with target accuracy 1.0D-06 and 6632 points in CPU time    0.2
 Computed new grid on record 1800.1 in CPU time    0.2
   18952 words reserved for DFT integration

 PROGRAM * RKS-SCF (Restricted open shell Kohn-Sham)     Authors: W. Meyer, H.-J. Werner, P.J. Knowles, 1993

 NUMBER OF ELECTRONS:       5+    4-
 CONVERGENCE THRESHOLDS:    1.00E-05 (Density)    1.00E-06 (Energy)
 MAX. NUMBER OF ITERATIONS:       60
 INTERPOLATION TYPE:            DIIS
 INTERPOLATION STEPS:              2 (START)      1 (STEP)
 LEVEL SHIFTS:                 -0.30 (CLOSED) -0.00 (OPEN) 



 Use fine grid record 1800.2 for energy threshold 1.0D-06
 Orbital guess generated from atomic densities. Full valence occupancy:    6   2

 Molecular orbital dump at record        2100.2

 Initial alpha occupancy:   4   1
 Initial beta  occupancy:   3   1
 Wave function symmetry:    1

 ITERATION    DDIFF          GRAD             ENERGY        2-EL.EN.            DIPOLE MOMENTS         DIIS
    1      0.000D+00      0.000D+00       -39.76775733     56.611462    0.00017    0.00000    0.00000    0
    2      0.000D+00      0.302D-01       -39.78759591     53.122045    0.00028    0.00000   -0.00000    1
    3      0.336D-01      0.190D-01       -39.80214044     54.511642    0.00026    0.00000   -0.00000    2
    4      0.136D-01      0.110D-02       -39.80225343     54.458163    0.00030    0.00000   -0.00000    3
    5      0.203D-02      0.147D-03       -39.80225600     54.456998    0.00032    0.00000   -0.00000    4
    6      0.312D-03      0.254D-04       -39.80225607     54.456538    0.00033    0.00000   -0.00000    5
    7      0.452D-04      0.532D-05       -39.80225607     54.456756    0.00033    0.00000   -0.00000    5
    8      0.108D-04      0.719D-06       -39.80225607     54.456729    0.00033    0.00000   -0.00000    5
    9      0.131D-05      0.131D-06       -39.80225607     54.456725    0.00033    0.00000   -0.00000    0

 Final alpha occupancy:   4   1
 Final beta  occupancy:   3   1

 !RKS STATE 1.1 Energy                -39.802256068435
 Nuclear energy                         9.57958860
 One-electron energy                  -71.40632241
 Two-electron energy                   27.22836271
 Density functional                    -5.20388498     B88=-6.18394651 DIRAC=-5.52346514 LYP=-0.25753624 VWN5=-0.53137855
 Virial quotient                       -1.00664111
 !RKS STATE 1.1 Dipole moment           0.00033374     0.00000000    -0.00000000
 Dipole moment /Debye                   0.00084823     0.00000000    -0.00000000

 Orbital energies:

         1.1          2.1          3.1          4.1          5.1          6.1
    -10.190018    -0.667307    -0.418109    -0.230637     0.022527     0.058334

         1.2          2.2          3.2
     -0.418096     0.064642     0.193906


 **********************************************************************************************************************************
 DATASETS  * FILE   NREC   LENGTH (MB)   RECORD NAMES
              1      20        2.84       500      610      700      900      950      970     1000      129      960     1100   
                                          VAR    BASINP    GEOM    SYMINP    ZMAT    AOBASIS   BASIS     P2S    ABASIS      S 
                                         1400     1410     1200     1210     1080     1600     1650     1300     1700     1800   
                                           T        V       H0       H01     AOSYM     SMH    MOLCAS    ERIS     OPER     GRID   

              2       4        0.29       700     1000     1800     2100   
                                         GEOM     BASIS    GRID      RKS  

 PROGRAMS   *        TOTAL        KS       INT
 CPU TIMES  *         3.13      2.48      0.14
 REAL TIME  *         4.66 SEC
 DISK USED  *         7.57 MB      
 **********************************************************************************************************************************


 PROGRAM * OPT (Geometry optimization)     Authors: F. Eckert and H.-J. Werner


 BFGS update of hessian

 *** Long output written to logfile /home/ospite/Desktop/MMfP/Project6/CH3/molpro/DFT/ch3_+.log ***


 Geometry optimization using default procedure for command KS-SCF

 Geometry written to block  1 of record 700

 Making model hessian for Z-matrix coordinates

 Quadratic Steepest Descent - Minimum Search

 Optimization point 1

 Variable                      Last           Current        Next           Gradient       Hessian

 E(KS-SCF000) / Hartree      0.00000000   -39.80225607     0.00000000
 D / ANG                     0.00000000     1.09000000     1.08499835     0.02575868     5.15003108
 A / DEG                     0.00000000   120.00000000   119.98501311     0.00000313     0.00020858
 T / DEG                     0.00000000     0.00000000     0.00000000     0.00000000     0.00000000
 Convergence:                0.00000000  (line search)     0.00945538     0.01363208  (total)

 Freezing grid

 Optimization point 2

 Variable                      Last           Current        Next           Gradient       Hessian

 E(KS-SCF000) / Hartree    -39.80225607   -39.80233390     0.00000000
 D / ANG                     1.09000000     1.08499835     1.08339406     0.00625359     3.89906328
 A / DEG                   120.00000000   119.98501311   119.99227929    -0.00000121     0.00021519
 T / DEG                     0.00000000     0.00000000     0.00000000     0.00000000     0.00000000
 Convergence:                0.00000000  (line search)     0.00303431     0.00330998  (total)

 Optimization point 3

 Variable                      Last           Current        Next           Gradient       Hessian

 E(KS-SCF000) / Hartree    -39.80233390   -39.80233882     0.00000000
 D / ANG                     1.08499835     1.08339406     1.08342875    -0.00013816     3.98495711
 A / DEG                   119.98501311   119.99227929   119.99181343     0.00000010     0.00021732
 T / DEG                     0.00000000     0.00000000     0.00000000     0.00000000     0.00000000
 Convergence:                0.00000000  (line search)     0.00006606     0.00007331  (total)

 END OF GEOMETRY OPTIMIZATION.    TOTAL CPU:         8.2 SEC

 ITER.   ENERGY(OLD)    ENERGY(NEW)      DE          GRADMAX     GRADNORM    GRADRMS     STEPMAX     STEPLEN     STEPRMS
   1   -39.80225607   -39.80233390    -0.00007783  0.01363090  0.01363208  0.00454403  0.00945176  0.00945538  0.00315179
   2   -39.80233390   -39.80233882    -0.00000492  0.00330926  0.00330998  0.00110333  0.00303165  0.00303431  0.00101144
   3   -39.80233882   -39.80233882    -0.00000000  0.00007311  0.00007331  0.00002444  0.00006556  0.00006606  0.00002202

 Geometry written to block  1 of record 700


 **********************************************************************************************************************************
 DATASETS  * FILE   NREC   LENGTH (MB)   RECORD NAMES
              1      20        2.84       500      610      700      900      950      970     1000      129      960     1100   
                                          VAR    BASINP    GEOM    SYMINP    ZMAT    AOBASIS   BASIS     P2S    ABASIS      S 
                                         1400     1410     1200     1210     1080     1600     1650     1300     1700     1800   
                                           T        V       H0       H01     AOSYM     SMH    MOLCAS    ERIS     OPER     GRID   

              2       4        0.29       700     1000     1800     2100   
                                         GEOM     BASIS    GRID      RKS  

 PROGRAMS   *        TOTAL      OPTG        KS       INT
 CPU TIMES  *        11.38      8.24      2.48      0.14
 REAL TIME  *        22.13 SEC
 DISK USED  *         7.61 MB      
 **********************************************************************************************************************************


 PROGRAM * HESSIAN

 Computing numerical hessian using default procedure for command KS-SCF

 Symmetry elements for unique displacements: Y  Z  

 Using no symmetry in wavefunction calculations

 Running default procedure: KS-SCF000


 Recomputing wavefunction at reference geometry

 Numerically approximating hessian using central gradient differences

 Task list generated. Total number of displacements:     13

    5 tasks completed, CPU=    29.43 sec, Elapsed=    52.78 sec
   10 tasks completed, CPU=    55.41 sec, Elapsed=    82.20 sec

 Numerical KS-SCF000 hessian completed. CPU-time:    71.03 sec, Elapsed:    99.24 sec

 KS-SCF hessian saved to record  5300.2

 FREQUENCIES * CALCULATION OF HARMONIC VIBRATIONAL SPECTRA FOR KS-SCF


 Permanent Dipole Moment [debye]
   1-  3    0.001227    0.000000   -0.000000

 Dipole Moment Norm    0.0012272 [debye]

 Dipole Moment Derivatives [debye/ang]
                   1             2             3             4             5             6             7             8
         1     0.0206825     0.0000000     0.0000000    -0.3529588     0.0000000     0.0000000     0.1661435    -0.2997904
         2    -0.0000000     0.0254173     0.0000000     0.0000000     0.3356073     0.0000000    -0.2977863    -0.1805035
         3     0.0000000     0.0000000    -2.7101677    -0.0000000     0.0000000     0.9154398     0.0000000    -0.0000000
                   9            10            11            12
         1     0.0000000     0.1661435     0.2997904     0.0000000
         2     0.0000000     0.2977863    -0.1805035    -0.0000000
         3     0.8974249     0.0000000     0.0000000     0.8974249

 Projecting out rotations and translations

   Low Vibration      Wavenumber
        Nr             [1/cm] 
        1                0.00
        2                0.00
        3                0.00
        4                0.00
        5                0.00
        6                0.00

     Vibration        Wavenumber
        Nr             [1/cm] 
        1              559.75
        2             1431.42
        3             1431.47
        4             3129.46
        5             3317.23
        6             3317.62

 FREQUENCIES * CALCULATION OF NORMAL MODES FOR KS-SCF


 Atomic Coordinates

  Nr  Atom  Charge       X              Y              Z

   1   C     6.00   -0.000033970    0.000000000    0.000000000
   2   H1    1.00    2.047349658    0.000000000    0.000000000
   3   H2    1.00   -1.023472430   -1.773232482    0.000000000
   4   H3    1.00   -1.023472430    1.773232482    0.000000000

 Frequencies dumped to record   5400.2

 Gradient norm at reference geometry: 0.13816D-03

 Normal Modes

                              1 B1        2 A1        3 B2        4 A1        5 A1 
 Wavenumbers [cm-1]          559.75     1431.42     1431.47     3129.46     3317.23
 Intensities [km/mol]        128.51        7.66        7.49        0.00        7.42
 Intensities [relative]      100.00        5.96        5.83        0.00        5.77
           CX1              0.00000    -0.08869     0.00000    -0.00012    -0.09423
           CY1              0.00000    -0.00000    -0.08868     0.00000     0.00000
           CZ1             -0.12940    -0.00000     0.00000    -0.00000     0.00000
           H1X2            -0.00000    -0.06652     0.00000     0.57599     0.76774
           H1Y2             0.00000     0.00000     0.77105     0.00000     0.00000
           H1Z2             0.51391     0.00000     0.00000    -0.00000    -0.00000
           H2X3             0.00000     0.56169    -0.36269    -0.28728     0.17756
           H2Y3            -0.00000    -0.36261     0.14283    -0.49765     0.34194
           H2Z3             0.51404     0.00000     0.00000     0.00000    -0.00000
           H3X4            -0.00000     0.56169     0.36269    -0.28728     0.17756
           H3Y4            -0.00000     0.36261     0.14283     0.49765    -0.34194
           H3Z4             0.51404     0.00000     0.00000     0.00000    -0.00000

                              6 B2 
 Wavenumbers [cm-1]         3317.62
 Intensities [km/mol]          7.40
 Intensities [relative]        5.76
           CX1             -0.00000
           CY1             -0.09424
           CZ1             -0.00000
           H1X2             0.00000
           H1Y2            -0.01983
           H1Z2             0.00000
           H2X3             0.34124
           H2Y3             0.57141
           H2Z3             0.00000
           H3X4            -0.34124
           H3Y4             0.57141
           H3Z4            -0.00000


 Normal Modes of low/zero frequencies

                                  1           2           3           4           5
 Wavenumbers [cm-1]            0.00        0.00        0.00        0.00        0.00
 Intensities [km/mol]          0.00        0.00        0.00        0.00        0.00
 Intensities [relative]        0.00        0.00        0.00        0.00        0.00
           CX1              0.25317    -0.01117    -0.00052     0.00813     0.00325
           CY1              0.04899     0.03945     0.00201    -0.03509    -0.01099
           CZ1              0.00044     0.13631     0.00018     0.20649     0.07198
           H1X2             0.25317    -0.01117    -0.00052     0.00813     0.00325
           H1Y2             0.05682     0.49537     0.02204    -0.35624     0.06413
           H1Z2            -0.00513    -0.07239    -0.00888     0.07223     0.84487
           H2X3             0.25996     0.38369     0.01684    -0.27001     0.06831
           H2Y3             0.04507    -0.18845    -0.00800     0.12544    -0.04854
           H2Z3             0.00327     0.26326    -0.69912     0.26078    -0.31874
           H3X4             0.24639    -0.40603    -0.01787     0.28628    -0.06182
           H3Y4             0.04507    -0.18845    -0.00800     0.12544    -0.04854
           H3Z4             0.00317     0.21799     0.70852     0.28643    -0.31000

                                  6
 Wavenumbers [cm-1]            0.00
 Intensities [km/mol]          0.00
 Intensities [relative]        0.00
           CX1             -0.04705
           CY1              0.24739
           CZ1              0.01066
           H1X2            -0.04705
           H1Y2             0.13072
           H1Z2             0.06042
           H2X3            -0.14809
           H2Y3             0.30570
           H2Z3            -0.01412
           H3X4             0.05400
           H3Y4             0.30570
           H3Z4            -0.01429


 Zero point energy:  0.03004207 [H]     6593.47 [1/CM]       78.88 [KJ/MOL]
 Frequency information read from record  5400.2

 Dump information in style MOLDEN to ch4_6-31+g.molpro                                                               

 Molecular orbitals read from record     2101.2  Type=RKS/CANONICAL (state 1.1)
 Occupation numbers read from record     2101.2  Type=RKS/RHF (state 1.1)
 Orbital energies read from record       2101.2  Type=RKS/CANONICAL (state 1.1)
 Redundancy group numbers read from rec  2101.2  Type=RKS/RHF (state 1.1)

 DUMP ORBITAL  1.1 AS ORBITAL    1  occ=    2.0000  eig=  -10.1881  GROUP=   2
 DUMP ORBITAL  2.1 AS ORBITAL    2  occ=    2.0000  eig=   -0.6691  GROUP=   2
 DUMP ORBITAL  3.1 AS ORBITAL    3  occ=    2.0000  eig=   -0.4195  GROUP=   2
 DUMP ORBITAL  4.1 AS ORBITAL    4  occ=    2.0000  eig=   -0.4194  GROUP=   2
 DUMP ORBITAL  5.1 AS ORBITAL    5  occ=    1.0000  eig=   -0.2306  GROUP=   1

 Total charge:       9.000000
 Frequency information read from record  5400.2

 **********************************************************************************************************************************

        KS-SCF          KS-SCF          KS-SCF          KS-SCF          KS-SCF          KS-SCF          KS-SCF          KS-SCF  
    -39.80233882    -39.80233867    -39.80232436    -39.80232400    -39.80233241    -39.80233234    -39.80233867    -39.80233647
 **********************************************************************************************************************************
 Variable memory released
