
 Primary working directories    : /data/scratch
 Secondary working directories  : /data/scratch
 Wavefunction directory         : /home/ospite/wfu/
 Main file repository           : /data/scratch/

 ARCHNAME  : Linux/x86_64
 FC        : /usr/bin/gfortran
 FCVERSION : 4.8.5
 BLASLIB   : 
 id        : polimi

 Nodes     nprocs
 molmod       1

 Using default tuning parameters: mindgm=1; mindgv=20; mindgc=4; mindgr=1; noblas=0; mincuda=1000; minvec=7
 default implementation of scratch files=df  

 ***,methyl with imposed symmetry and aug-cc-pVDZ basis set
 memory,100,m
 
 basis=aug-cc-pVDZ
 symmetry,y
 
 geometry={angstrom
 C
 H1, C, d
 H2, C, d, H1, a
 H3, C, d, H1, -a, H2, t
 }
 
 d=1.09 Ang
 a=120. Deg
 t=0.0 Deg
 
 {dfunc,b3lyp}
 ks
 optg
 frequencies
 put,molden,ch4_aug-ccpVDZ.molpro

 Variables initialized (661), CPU time= 0.02 sec
 Commands  initialized (458), CPU time= 0.05 sec, 486 directives.
 Default parameters read. Elapsed time= 0.26 sec

 Checking input...
 Passed
1


                                         ***  PROGRAM SYSTEM MOLPRO  ***
                         Copyright, University College Cardiff Consultants Limited, 2008

                                    Version 2010.1 linked Mar  6 2018 16:01:50


 **********************************************************************************************************************************
 LABEL *   methyl with imposed symmetry and aug-cc-pVDZ basis set                        
 Linux-3.10.0-1160.108.1.el7.x86_64/molmod(x86_64) 64 bit serial version                 DATE: 17-Aug-24          TIME: 18:19:21  
 **********************************************************************************************************************************

 SHA1:             d90fb18d49a3be29a79769f900c595ef3b8176e2
 **********************************************************************************************************************************

 Variable memory set to  100000000 words,  buffer space   230000 words

 SETTING BASIS          =    AUG-CC-PVDZ
 ZSYMEL=Y  

 SETTING D              =         1.09000000  ANG                             
 SETTING A              =       120.00000000  DEG                             
 SETTING T              =         0.00000000  DEG                             


 Recomputing integrals since basis changed


 Using spherical harmonics

 Library entry C      S aug-cc-pVDZ          selected for orbital group  1
 Library entry C      P aug-cc-pVDZ          selected for orbital group  1
 Library entry C      D aug-cc-pVDZ          selected for orbital group  1
 Library entry H      S aug-cc-pVDZ          selected for orbital group  2
 Library entry H      P aug-cc-pVDZ          selected for orbital group  2

1PROGRAM * SEWARD (Integral evaluation for generally contracted gaussian basis sets)     Author: Roland Lindh, 1990

 Geometry written to block  1 of record 700

 Orientation using atomic masses  
 Molecule type: Symmetric top,     Order of principal axis = 3
 User-specified symmetry elements: Y
 Symmetry elements: Y
 Rotational constants:     281.3443841    281.3443841    140.6721920 GHz  (calculated with average atomic masses)

 Point group  Cs  



 ATOMIC COORDINATES

 NR  ATOM    CHARGE       X              Y              Z

   1  C       6.00   -0.000000000    0.000000000    0.000000000
   2  H1      1.00    2.059801483    0.000000000    0.000000000
   3  H2      1.00   -1.029900742   -1.783840411    0.000000000
   4  H3      1.00   -1.029900742    1.783840411    0.000000000

 Bond lengths in Bohr (Angstrom)

 1-2  2.059801483  1-3  2.059801483  1-4  2.059801483
     ( 1.090000000)     ( 1.090000000)     ( 1.090000000)

 Bond angles

  2-1-3  120.00000000   2-1-4  120.00000000   3-1-4  120.00000000

 NUCLEAR CHARGE:                    9
 NUMBER OF PRIMITIVE AOS:          70
 NUMBER OF SYMMETRY AOS:           68
 NUMBER OF CONTRACTIONS:           50   (  32A'  +  18A"  )
 NUMBER OF CORE ORBITALS:           1   (   1A'  +   0A"  )
 NUMBER OF VALENCE ORBITALS:        7   (   5A'  +   2A"  )


 NUCLEAR REPULSION ENERGY    9.57958860

 EXTRA SYMMETRY OF AOS IN SYMMETRY 1:   1 1 1 1 1 2 1 2 1 2   1 2 1 1 2 1 1 1 1 1   2 1 2 1 1 1 1 2 1 1   2 1
 EXTRA SYMMETRY OF AOS IN SYMMETRY 2:   1 1 1 1 2 1 2 1 1 1   1 1 1 1 2 1 1 2

 Eigenvalues of metric

         1 0.965E-03 0.993E-03 0.744E-02 0.941E-02 0.209E-01 0.345E-01 0.415E-01 0.420E-01
         2 0.965E-03 0.744E-02 0.209E-01 0.345E-01 0.605E-01 0.763E-01 0.143E+00 0.171E+00


 Contracted 2-electron integrals neglected if value below      1.0D-11
 AO integral compression algorithm  1   Integral accuracy      1.0D-11

     1.835 MB (compressed) written to integral file ( 40.7%)


 NUMBER OF SORTED TWO-ELECTRON INTEGRALS:     425226.     BUFFER LENGTH:  32768
 NUMBER OF SEGMENTS:   1  SEGMENT LENGTH:     425226      RECORD LENGTH: 524288

 Memory used in sort:       0.98 MW

 SORT1 READ      644114. AND WROTE      218954. INTEGRALS IN      1 RECORDS. CPU TIME:     0.02 SEC, REAL TIME:     0.02 SEC
 SORT2 READ      218954. AND WROTE      425226. INTEGRALS IN      7 RECORDS. CPU TIME:     0.17 SEC, REAL TIME:     0.25 SEC

 FILE SIZES:   FILE 1:     4.5 MBYTE,  FILE 4:     4.2 MBYTE,   TOTAL:      8.7 MBYTE

 OPERATOR DM      FOR CENTER  0  COORDINATES:    0.000000    0.000000    0.000000


 **********************************************************************************************************************************
 DATASETS  * FILE   NREC   LENGTH (MB)   RECORD NAMES
              1      19        3.87       500      610      700      900      950      970     1000      129      960     1100   
                                          VAR    BASINP    GEOM    SYMINP    ZMAT    AOBASIS   BASIS     P2S    ABASIS      S 
                                         1400     1410     1200     1210     1080     1600     1650     1300     1700   
                                           T        V       H0       H01     AOSYM     SMH    MOLCAS    ERIS     OPER   

 PROGRAMS   *        TOTAL       INT
 CPU TIMES  *         0.91      0.41
 REAL TIME  *         1.35 SEC
 DISK USED  *         9.21 MB      
 **********************************************************************************************************************************

 Density functional group B3LYP=B88+DIRAC+LYP+VWN5
 Functional: B88(Automatically generated B88)                                  Gradient terms: 1
 Functional: DIRAC(Automatically generated DIRAC)                              Gradient terms: 0
 Functional: LYP(Lee-Yang-Parr gradient-corrected correlation energy (1988))   Gradient terms: 1
 Functional: VWN5(Automatically generated VWN5)                                Gradient terms: 0
 Use grid at  1800.2


 Exact exchange will be calculated, factor:  0.2000

 Functional: B88                       Factor:  0.7200
 Functional: DIRAC                     Factor:  0.0800
 Functional: LYP                       Factor:  0.8100
 Functional: VWN5                      Factor:  0.1900

 Generated new metagrid on record  1800.2 with target accuracy 1.0D-06 and 6632 points in CPU time    0.2
 Computed new grid on record 1800.1 in CPU time    0.2
   43650 words reserved for DFT integration

 PROGRAM * RKS-SCF (Restricted open shell Kohn-Sham)     Authors: W. Meyer, H.-J. Werner, P.J. Knowles, 1993

 NUMBER OF ELECTRONS:       5+    4-
 CONVERGENCE THRESHOLDS:    1.00E-05 (Density)    1.00E-06 (Energy)
 MAX. NUMBER OF ITERATIONS:       60
 INTERPOLATION TYPE:            DIIS
 INTERPOLATION STEPS:              2 (START)      1 (STEP)
 LEVEL SHIFTS:                 -0.30 (CLOSED) -0.00 (OPEN) 



 Use fine grid record 1800.2 for energy threshold 1.0D-06
 Orbital guess generated from atomic densities. Full valence occupancy:    6   2

 Molecular orbital dump at record        2100.2

 Initial alpha occupancy:   4   1
 Initial beta  occupancy:   3   1
 Wave function symmetry:    1

 ITERATION    DDIFF          GRAD             ENERGY        2-EL.EN.            DIPOLE MOMENTS         DIIS
    1      0.000D+00      0.000D+00       -39.77872161     56.557183    0.00000    0.00000    0.00000    0
    2      0.000D+00      0.120D-01       -39.79754221     53.228491   -0.00019    0.00000   -0.00000    1
    3      0.365D-01      0.761D-02       -39.81057695     54.534076    0.00002    0.00000    0.00000    2
    4      0.157D-01      0.439D-03       -39.81068553     54.490033    0.00007    0.00000    0.00000    3
    5      0.179D-02      0.868D-04       -39.81069078     54.484103    0.00010    0.00000    0.00000    4
    6      0.354D-03      0.124D-04       -39.81069088     54.483473    0.00010    0.00000    0.00000    5
    7      0.812D-04      0.337D-05       -39.81069088     54.483780    0.00011    0.00000    0.00000    5
    8      0.309D-04      0.370D-06       -39.81069088     54.483747    0.00011    0.00000    0.00000    5
    9      0.448D-05      0.141D-06       -39.81069088     54.483760    0.00011    0.00000    0.00000    0

 Final alpha occupancy:   4   1
 Final beta  occupancy:   3   1

 !RKS STATE 1.1 Energy                -39.810690884873
 Nuclear energy                         9.57958860
 One-electron energy                  -71.42719815
 Two-electron energy                   27.24187999
 Density functional                    -5.20496132     B88=-6.18485064 DIRAC=-5.52534504 LYP=-0.25781800 VWN5=-0.53162466
 Virial quotient                       -1.00853827
 !RKS STATE 1.1 Dipole moment           0.00010682     0.00000000     0.00000000
 Dipole moment /Debye                   0.00027150     0.00000000     0.00000000

 Orbital energies:

         1.1          2.1          3.1          4.1          5.1          6.1
    -10.194330    -0.665606    -0.415379    -0.231984    -0.003405     0.030602

         1.2          2.2          3.2
     -0.415375     0.033004     0.104216


 **********************************************************************************************************************************
 DATASETS  * FILE   NREC   LENGTH (MB)   RECORD NAMES
              1      20        4.08       500      610      700      900      950      970     1000      129      960     1100   
                                          VAR    BASINP    GEOM    SYMINP    ZMAT    AOBASIS   BASIS     P2S    ABASIS      S 
                                         1400     1410     1200     1210     1080     1600     1650     1300     1700     1800   
                                           T        V       H0       H01     AOSYM     SMH    MOLCAS    ERIS     OPER     GRID   

              2       4        0.33       700     1000     1800     2100   
                                         GEOM     BASIS    GRID      RKS  

 PROGRAMS   *        TOTAL        KS       INT
 CPU TIMES  *         5.86      4.95      0.41
 REAL TIME  *         7.30 SEC
 DISK USED  *         9.21 MB      
 **********************************************************************************************************************************


 PROGRAM * OPT (Geometry optimization)     Authors: F. Eckert and H.-J. Werner


 BFGS update of hessian

 *** Long output written to logfile /home/ospite/Desktop/MMfP/Project6/CH3/molpro/DFT/ch3_aug-ccpVDZ.log ***


 Geometry optimization using default procedure for command KS-SCF

 Geometry written to block  1 of record 700

 Making model hessian for Z-matrix coordinates

 Quadratic Steepest Descent - Minimum Search

 Optimization point 1

 Variable                      Last           Current        Next           Gradient       Hessian

 E(KS-SCF000) / Hartree      0.00000000   -39.81069088     0.00000000
 D / ANG                     0.00000000     1.09000000     1.08814360     0.00956054     5.15003108
 A / DEG                     0.00000000   120.00000000   119.98131511     0.00000390     0.00020858
 T / DEG                     0.00000000     0.00000000     0.00000000     0.00000000     0.00000000
 Convergence:                0.00000000  (line search)     0.00352322     0.00506414  (total)

 Freezing grid

 Optimization point 2

 Variable                      Last           Current        Next           Gradient       Hessian

 E(KS-SCF000) / Hartree    -39.81069088   -39.81070196     0.00000000
 D / ANG                     1.09000000     1.08814360     1.08755253     0.00230927     3.91037198
 A / DEG                   120.00000000   119.98131511   119.97657122     0.00000075     0.00021083
 T / DEG                     0.00000000     0.00000000     0.00000000     0.00000000     0.00000000
 Convergence:                0.00000000  (line search)     0.00112002     0.00122276  (total)

 Optimization point 3

 Variable                      Last           Current        Next           Gradient       Hessian

 E(KS-SCF000) / Hartree    -39.81070196   -39.81070264     0.00000000
 D / ANG                     1.08814360     1.08755253     1.08755715    -0.00001811     3.94037093
 A / DEG                   119.98131511   119.97657122   119.97682167    -0.00000005     0.00021165
 T / DEG                     0.00000000     0.00000000     0.00000000     0.00000000     0.00000000
 Convergence:                0.00000000  (line search)     0.00000976     0.00001003  (total)

 END OF GEOMETRY OPTIMIZATION.    TOTAL CPU:        13.0 SEC

 ITER.   ENERGY(OLD)    ENERGY(NEW)      DE          GRADMAX     GRADNORM    GRADRMS     STEPMAX     STEPLEN     STEPRMS
   1   -39.81069088   -39.81070196    -0.00001107  0.00505922  0.00506414  0.00168805  0.00350809  0.00352322  0.00117441
   2   -39.81070196   -39.81070264    -0.00000068  0.00122201  0.00122276  0.00040759  0.00111695  0.00112002  0.00037334
   3   -39.81070264   -39.81070264    -0.00000000  0.00000958  0.00001003  0.00000334  0.00000873  0.00000976  0.00000325

 Geometry written to block  1 of record 700


 **********************************************************************************************************************************
 DATASETS  * FILE   NREC   LENGTH (MB)   RECORD NAMES
              1      20        4.08       500      610      700      900      950      970     1000      129      960     1100   
                                          VAR    BASINP    GEOM    SYMINP    ZMAT    AOBASIS   BASIS     P2S    ABASIS      S 
                                         1400     1410     1200     1210     1080     1600     1650     1300     1700     1800   
                                           T        V       H0       H01     AOSYM     SMH    MOLCAS    ERIS     OPER     GRID   

              2       4        0.33       700     1000     1800     2100   
                                         GEOM     BASIS    GRID      RKS  

 PROGRAMS   *        TOTAL      OPTG        KS       INT
 CPU TIMES  *        18.82     12.95      4.95      0.41
 REAL TIME  *        22.82 SEC
 DISK USED  *         9.29 MB      
 **********************************************************************************************************************************


 PROGRAM * HESSIAN

 Computing numerical hessian using default procedure for command KS-SCF

 Symmetry elements for unique displacements: Y  Z  

 Using no symmetry in wavefunction calculations

 Running default procedure: KS-SCF000


 Recomputing wavefunction at reference geometry

 Numerically approximating hessian using central gradient differences

 Task list generated. Total number of displacements:     13

    5 tasks completed, CPU=    68.19 sec, Elapsed=    73.69 sec
   10 tasks completed, CPU=   134.60 sec, Elapsed=   145.12 sec

 Numerical KS-SCF000 hessian completed. CPU-time:   174.77 sec, Elapsed:   188.32 sec

 KS-SCF hessian saved to record  5300.2

 FREQUENCIES * CALCULATION OF HARMONIC VIBRATIONAL SPECTRA FOR KS-SCF


 Permanent Dipole Moment [debye]
   1-  3    0.000417    0.000000    0.000000

 Dipole Moment Norm    0.0004168 [debye]

 Dipole Moment Derivatives [debye/ang]
                   1             2             3             4             5             6             7             8
         1     0.0700005     0.0000000     0.0000000    -0.2532244     0.0000000     0.0000000     0.0916146    -0.2018044
         2     0.0000000     0.0839711     0.0000000     0.0000000     0.1995530     0.0000000    -0.1974779    -0.1417484
         3    -0.0000000     0.0000000    -2.0433565     0.0000000     0.0000000     0.6981252     0.0000000    -0.0000000
                   9            10            11            12
         1     0.0000000     0.0916146     0.2018044     0.0000000
         2     0.0000000     0.1974779    -0.1417484    -0.0000000
         3     0.6726887     0.0000000     0.0000000     0.6726887

 Projecting out rotations and translations

   Low Vibration      Wavenumber
        Nr             [1/cm] 
        1                0.00
        2                0.00
        3                0.00
        4                0.00
        5                0.00
        6                0.00

     Vibration        Wavenumber
        Nr             [1/cm] 
        1              524.83
        2             1381.62
        3             1382.04
        4             3105.50
        5             3294.87
        6             3295.36

 FREQUENCIES * CALCULATION OF NORMAL MODES FOR KS-SCF


 Atomic Coordinates

  Nr  Atom  Charge       X              Y              Z

   1   C     6.00   -0.000096551    0.000000000    0.000000000
   2   H1    1.00    2.055088613    0.000000000    0.000000000
   3   H2    1.00   -1.026969035   -1.780258117    0.000000000
   4   H3    1.00   -1.026969035    1.780258117    0.000000000

 Frequencies dumped to record   5400.2

 Gradient norm at reference geometry: 0.18113D-04

 Normal Modes

                              1 B1        2 B2        3 A1        4 A1        5 A1 
 Wavenumbers [cm-1]          524.83     1381.62     1382.04     3105.50     3294.87
 Intensities [km/mol]         73.05        2.66        2.89        0.00        3.93
 Intensities [relative]      100.00        3.64        3.96        0.00        5.39
           CX1             -0.00000     0.00000    -0.08819    -0.00013    -0.09469
           CY1              0.00000    -0.08813    -0.00000     0.00000    -0.00000
           CZ1             -0.12940     0.00000     0.00000     0.00000    -0.00000
           H1X2             0.00000     0.00000    -0.07079     0.57577     0.76752
           H1Y2             0.00000     0.77116     0.00000     0.00000    -0.00000
           H1Z2             0.51376    -0.00000    -0.00000    -0.00000     0.00000
           H2X3             0.00000    -0.36467     0.56086    -0.28709     0.18044
           H2Y3            -0.00000     0.13950    -0.36421    -0.49788     0.33990
           H2Z3             0.51412    -0.00000    -0.00000    -0.00000     0.00000
           H3X4            -0.00000     0.36467     0.56086    -0.28709     0.18044
           H3Y4             0.00000     0.13950     0.36421     0.49788    -0.33990
           H3Z4             0.51412    -0.00000    -0.00000    -0.00000     0.00000

                              6 B2 
 Wavenumbers [cm-1]         3295.36
 Intensities [km/mol]          3.99
 Intensities [relative]        5.46
           CX1              0.00000
           CY1             -0.09475
           CZ1              0.00000
           H1X2            -0.00000
           H1Y2            -0.01545
           H1Z2             0.00000
           H2X3             0.33902
           H2Y3             0.57229
           H2Z3             0.00000
           H3X4            -0.33902
           H3Y4             0.57229
           H3Z4             0.00000


 Normal Modes of low/zero frequencies

                                  1           2           3           4           5
 Wavenumbers [cm-1]            0.00        0.00        0.00        0.00        0.00
 Intensities [km/mol]          0.00        0.00        0.00        0.00        0.00
 Intensities [relative]        0.00        0.00        0.00        0.00        0.00
           CX1              0.24963     0.06451    -0.00142     0.00005     0.00563
           CY1             -0.06419     0.24504     0.00805     0.00028     0.03792
           CZ1              0.00100    -0.01267     0.15638     0.00233     0.15382
           H1X2             0.24963     0.06451    -0.00142     0.00005     0.00563
           H1Y2            -0.05478     0.23627     0.46293    -0.00142    -0.19099
           H1Z2             0.02451    -0.15828     0.09503     0.00542     0.70765
           H2X3             0.25779     0.05691     0.39260    -0.00142    -0.19266
           H2Y3            -0.06890     0.24942    -0.21922     0.00113     0.15230
           H2Z3            -0.01077     0.06009     0.18499     0.70507    -0.12946
           H3X4             0.24148     0.07211    -0.39544     0.00153     0.20392
           H3Y4            -0.06890     0.24942    -0.21922     0.00113     0.15230
           H3Z4            -0.01073     0.06008     0.18907    -0.70349    -0.11634

                                  6
 Wavenumbers [cm-1]            0.00
 Intensities [km/mol]          0.00
 Intensities [relative]        0.00
           CX1             -0.00056
           CY1             -0.02906
           CZ1              0.13502
           H1X2            -0.00056
           H1Y2            -0.29595
           H1Z2            -0.43897
           H2X3            -0.23174
           H2Y3             0.10429
           H2Z3             0.41949
           H3X4             0.23063
           H3Y4             0.10429
           H3Z4             0.42415


 Zero point energy:  0.02958021 [H]     6492.11 [1/CM]       77.66 [KJ/MOL]
 Frequency information read from record  5400.2

 Dump information in style MOLDEN to ch4_aug-ccpvdz.molpro                                                           

 Molecular orbitals read from record     2101.2  Type=RKS/CANONICAL (state 1.1)
 Occupation numbers read from record     2101.2  Type=RKS/RHF (state 1.1)
 Orbital energies read from record       2101.2  Type=RKS/CANONICAL (state 1.1)
 Redundancy group numbers read from rec  2101.2  Type=RKS/RHF (state 1.1)

 DUMP ORBITAL  1.1 AS ORBITAL    1  occ=    2.0000  eig=  -10.1936  GROUP=   2
 DUMP ORBITAL  2.1 AS ORBITAL    2  occ=    2.0000  eig=   -0.6663  GROUP=   2
 DUMP ORBITAL  3.1 AS ORBITAL    3  occ=    2.0000  eig=   -0.4160  GROUP=   2
 DUMP ORBITAL  4.1 AS ORBITAL    4  occ=    2.0000  eig=   -0.4158  GROUP=   2
 DUMP ORBITAL  5.1 AS ORBITAL    5  occ=    1.0000  eig=   -0.2320  GROUP=   1

 Total charge:       9.000000
 Frequency information read from record  5400.2

 **********************************************************************************************************************************

        KS-SCF          KS-SCF          KS-SCF          KS-SCF          KS-SCF          KS-SCF          KS-SCF          KS-SCF  
    -39.81070267    -39.81070254    -39.81068840    -39.81068812    -39.81069644    -39.81069640    -39.81070253    -39.81070048
 **********************************************************************************************************************************
 Variable memory released
