
 Primary working directories    : /data/scratch
 Secondary working directories  : /data/scratch
 Wavefunction directory         : /home/ospite/wfu/
 Main file repository           : /data/scratch/

 ARCHNAME  : Linux/x86_64
 FC        : /usr/bin/gfortran
 FCVERSION : 4.8.5
 BLASLIB   : 
 id        : polimi

 Nodes     nprocs
 molmod       1

 Using default tuning parameters: mindgm=1; mindgv=20; mindgc=4; mindgr=1; noblas=0; mincuda=1000; minvec=7
 default implementation of scratch files=df  

 ***,methyl with imposed symmetry and 6-31++G basis set
 memory,100,m
 
 basis=6-31++G
 symmetry,y
 
 geometry={angstrom
 C
 H1, C, d
 H2, C, d, H1, a
 H3, C, d, H1, -a, H2, t
 }
 
 d=1.09 Ang
 a=120. Deg
 t=0.0 Deg
 
 {dfunc,b3lyp}
 ks
 optg
 frequencies
 put,molden,ch4_6-31++G.molpro

 Variables initialized (661), CPU time= 0.01 sec
 Commands  initialized (458), CPU time= 0.05 sec, 486 directives.
 Default parameters read. Elapsed time= 0.26 sec

 Checking input...
 Passed
1


                                         ***  PROGRAM SYSTEM MOLPRO  ***
                         Copyright, University College Cardiff Consultants Limited, 2008

                                    Version 2010.1 linked Mar  6 2018 16:01:50


 **********************************************************************************************************************************
 LABEL *   methyl with imposed symmetry and 6-31++G basis set                            
 Linux-3.10.0-1160.108.1.el7.x86_64/molmod(x86_64) 64 bit serial version                 DATE: 17-Aug-24          TIME: 18:25:57  
 **********************************************************************************************************************************

 SHA1:             d90fb18d49a3be29a79769f900c595ef3b8176e2
 **********************************************************************************************************************************

 Variable memory set to  100000000 words,  buffer space   230000 words

 SETTING BASIS          =    6-31++G
 ZSYMEL=Y  

 SETTING D              =         1.09000000  ANG                             
 SETTING A              =       120.00000000  DEG                             
 SETTING T              =         0.00000000  DEG                             


 Recomputing integrals since basis changed


 Using spherical harmonics

 Library entry C      S 6-31G                selected for orbital group  1
 Library entry C      S 6-31++G              selected for orbital group  1
 Library entry C      P 6-31G                selected for orbital group  1
 Library entry C      P 6-31++G              selected for orbital group  1
 Library entry H      S 6-31G                selected for orbital group  2
 Library entry H      S 6-31++G              selected for orbital group  2

1PROGRAM * SEWARD (Integral evaluation for generally contracted gaussian basis sets)     Author: Roland Lindh, 1990

 Geometry written to block  1 of record 700

 Orientation using atomic masses  
 Molecule type: Symmetric top,     Order of principal axis = 3
 User-specified symmetry elements: Y
 Symmetry elements: Y
 Rotational constants:     281.3443841    281.3443841    140.6721920 GHz  (calculated with average atomic masses)

 Point group  Cs  



 ATOMIC COORDINATES

 NR  ATOM    CHARGE       X              Y              Z

   1  C       6.00   -0.000000000    0.000000000    0.000000000
   2  H1      1.00    2.059801483    0.000000000    0.000000000
   3  H2      1.00   -1.029900742   -1.783840411    0.000000000
   4  H3      1.00   -1.029900742    1.783840411    0.000000000

 Bond lengths in Bohr (Angstrom)

 1-2  2.059801483  1-3  2.059801483  1-4  2.059801483
     ( 1.090000000)     ( 1.090000000)     ( 1.090000000)

 Bond angles

  2-1-3  120.00000000   2-1-4  120.00000000   3-1-4  120.00000000

 NUCLEAR CHARGE:                    9
 NUMBER OF PRIMITIVE AOS:          41
 NUMBER OF SYMMETRY AOS:           41
 NUMBER OF CONTRACTIONS:           22   (  16A'  +   6A"  )
 NUMBER OF CORE ORBITALS:           1   (   1A'  +   0A"  )
 NUMBER OF VALENCE ORBITALS:        7   (   5A'  +   2A"  )


 NUCLEAR REPULSION ENERGY    9.57958860

 EXTRA SYMMETRY OF AOS IN SYMMETRY 1:   1 1 1 1 1 2 1 2 1 2   1 1 1 1 1 1

 Eigenvalues of metric

         1 0.771E-02 0.951E-02 0.302E-01 0.617E-01 0.208E+00 0.254E+00 0.259E+00 0.535E+00
         2 0.951E-02 0.617E-01 0.254E+00 0.550E+00 0.100E+01 0.296E+01


 Contracted 2-electron integrals neglected if value below      1.0D-11
 AO integral compression algorithm  1   Integral accuracy      1.0D-11

     0.262 MB (compressed) written to integral file (100.0%)


 NUMBER OF SORTED TWO-ELECTRON INTEGRALS:      18115.     BUFFER LENGTH:  32768
 NUMBER OF SEGMENTS:   1  SEGMENT LENGTH:      18115      RECORD LENGTH: 524288

 Memory used in sort:       0.58 MW

 SORT1 READ       31024. AND WROTE       11287. INTEGRALS IN      1 RECORDS. CPU TIME:     0.01 SEC, REAL TIME:     0.00 SEC
 SORT2 READ       11287. AND WROTE       18115. INTEGRALS IN      1 RECORDS. CPU TIME:     0.03 SEC, REAL TIME:     0.03 SEC

 FILE SIZES:   FILE 1:     2.8 MBYTE,  FILE 4:     4.2 MBYTE,   TOTAL:      7.1 MBYTE

 OPERATOR DM      FOR CENTER  0  COORDINATES:    0.000000    0.000000    0.000000


 **********************************************************************************************************************************
 DATASETS  * FILE   NREC   LENGTH (MB)   RECORD NAMES
              1      19        2.66       500      610      700      900      950      970     1000      129      960     1100   
                                          VAR    BASINP    GEOM    SYMINP    ZMAT    AOBASIS   BASIS     P2S    ABASIS      S 
                                         1400     1410     1200     1210     1080     1600     1650     1300     1700   
                                           T        V       H0       H01     AOSYM     SMH    MOLCAS    ERIS     OPER   

 PROGRAMS   *        TOTAL       INT
 CPU TIMES  *         0.65      0.15
 REAL TIME  *         1.01 SEC
 DISK USED  *         7.57 MB      
 **********************************************************************************************************************************

 Density functional group B3LYP=B88+DIRAC+LYP+VWN5
 Functional: B88(Automatically generated B88)                                  Gradient terms: 1
 Functional: DIRAC(Automatically generated DIRAC)                              Gradient terms: 0
 Functional: LYP(Lee-Yang-Parr gradient-corrected correlation energy (1988))   Gradient terms: 1
 Functional: VWN5(Automatically generated VWN5)                                Gradient terms: 0
 Use grid at  1800.2


 Exact exchange will be calculated, factor:  0.2000

 Functional: B88                       Factor:  0.7200
 Functional: DIRAC                     Factor:  0.0800
 Functional: LYP                       Factor:  0.8100
 Functional: VWN5                      Factor:  0.1900

 Generated new metagrid on record  1800.2 with target accuracy 1.0D-06 and 6632 points in CPU time    0.2
 Computed new grid on record 1800.1 in CPU time    0.2
   21327 words reserved for DFT integration

 PROGRAM * RKS-SCF (Restricted open shell Kohn-Sham)     Authors: W. Meyer, H.-J. Werner, P.J. Knowles, 1993

 NUMBER OF ELECTRONS:       5+    4-
 CONVERGENCE THRESHOLDS:    1.00E-05 (Density)    1.00E-06 (Energy)
 MAX. NUMBER OF ITERATIONS:       60
 INTERPOLATION TYPE:            DIIS
 INTERPOLATION STEPS:              2 (START)      1 (STEP)
 LEVEL SHIFTS:                 -0.30 (CLOSED) -0.00 (OPEN) 



 Use fine grid record 1800.2 for energy threshold 1.0D-06
 Orbital guess generated from atomic densities. Full valence occupancy:    6   2

 Molecular orbital dump at record        2100.2

 Initial alpha occupancy:   4   1
 Initial beta  occupancy:   3   1
 Wave function symmetry:    1

 ITERATION    DDIFF          GRAD             ENERGY        2-EL.EN.            DIPOLE MOMENTS         DIIS
    1      0.000D+00      0.000D+00       -39.76670605     56.644020    0.00033    0.00000    0.00000    0
    2      0.000D+00      0.269D-01       -39.78715329     53.097472    0.00056    0.00000   -0.00000    1
    3      0.299D-01      0.169D-01       -39.80220151     54.511896    0.00051    0.00000   -0.00000    2
    4      0.121D-01      0.974D-03       -39.80231622     54.457950    0.00058    0.00000   -0.00000    3
    5      0.187D-02      0.128D-03       -39.80231884     54.457087    0.00062    0.00000   -0.00000    4
    6      0.298D-03      0.259D-04       -39.80231895     54.456536    0.00063    0.00000    0.00000    5
    7      0.122D-03      0.550D-05       -39.80231895     54.456766    0.00064    0.00000    0.00000    5
    8      0.364D-04      0.713D-06       -39.80231895     54.456735    0.00064    0.00000   -0.00000    5
    9      0.406D-05      0.118D-06       -39.80231895     54.456731    0.00064    0.00000   -0.00000    0

 Final alpha occupancy:   4   1
 Final beta  occupancy:   3   1

 !RKS STATE 1.1 Energy                -39.802318950666
 Nuclear energy                         9.57958860
 One-electron energy                  -71.40643757
 Two-electron energy                   27.22836556
 Density functional                    -5.20383554     B88=-6.18388045 DIRAC=-5.52340798 LYP=-0.25754007 VWN5=-0.53137643
 Virial quotient                       -1.00664729
 !RKS STATE 1.1 Dipole moment           0.00063908     0.00000000    -0.00000000
 Dipole moment /Debye                   0.00162429     0.00000000    -0.00000000

 Orbital energies:

         1.1          2.1          3.1          4.1          5.1          6.1
    -10.190054    -0.667306    -0.418104    -0.230635    -0.001174     0.039137

         1.2          2.2          3.2
     -0.418087     0.041946     0.114867


 **********************************************************************************************************************************
 DATASETS  * FILE   NREC   LENGTH (MB)   RECORD NAMES
              1      20        2.87       500      610      700      900      950      970     1000      129      960     1100   
                                          VAR    BASINP    GEOM    SYMINP    ZMAT    AOBASIS   BASIS     P2S    ABASIS      S 
                                         1400     1410     1200     1210     1080     1600     1650     1300     1700     1800   
                                           T        V       H0       H01     AOSYM     SMH    MOLCAS    ERIS     OPER     GRID   

              2       4        0.29       700     1000     1800     2100   
                                         GEOM     BASIS    GRID      RKS  

 PROGRAMS   *        TOTAL        KS       INT
 CPU TIMES  *         3.23      2.58      0.15
 REAL TIME  *         4.48 SEC
 DISK USED  *         7.57 MB      
 **********************************************************************************************************************************


 PROGRAM * OPT (Geometry optimization)     Authors: F. Eckert and H.-J. Werner


 BFGS update of hessian

 *** Long output written to logfile /home/ospite/Desktop/MMfP/Project6/CH3/molpro/DFT/ch3_++.log ***


 Geometry optimization using default procedure for command KS-SCF

 Geometry written to block  1 of record 700

 Making model hessian for Z-matrix coordinates

 Quadratic Steepest Descent - Minimum Search

 Optimization point 1

 Variable                      Last           Current        Next           Gradient       Hessian

 E(KS-SCF000) / Hartree      0.00000000   -39.80231895     0.00000000
 D / ANG                     0.00000000     1.09000000     1.08500398     0.02572964     5.15003108
 A / DEG                     0.00000000   120.00000000   119.98447806     0.00000324     0.00020858
 T / DEG                     0.00000000     0.00000000     0.00000000     0.00000000     0.00000000
 Convergence:                0.00000000  (line search)     0.00944499     0.01361680  (total)

 Freezing grid

 Optimization point 2

 Variable                      Last           Current        Next           Gradient       Hessian

 E(KS-SCF000) / Hartree    -39.80231895   -39.80239622     0.00000000
 D / ANG                     1.09000000     1.08500398     1.08339798     0.00625685     3.89695900
 A / DEG                   120.00000000   119.98447806   119.99190524    -0.00000123     0.00021519
 T / DEG                     0.00000000     0.00000000     0.00000000     0.00000000     0.00000000
 Convergence:                0.00000000  (line search)     0.00303768     0.00331174  (total)

 Optimization point 3

 Variable                      Last           Current        Next           Gradient       Hessian

 E(KS-SCF000) / Hartree    -39.80239622   -39.80240115     0.00000000
 D / ANG                     1.08500398     1.08339798     1.08343228    -0.00013650     3.98171651
 A / DEG                   119.98447806   119.99190524   119.99142287     0.00000010     0.00021732
 T / DEG                     0.00000000     0.00000000     0.00000000     0.00000000     0.00000000
 Convergence:                0.00000000  (line search)     0.00006537     0.00007246  (total)

 END OF GEOMETRY OPTIMIZATION.    TOTAL CPU:         8.1 SEC

 ITER.   ENERGY(OLD)    ENERGY(NEW)      DE          GRADMAX     GRADNORM    GRADRMS     STEPMAX     STEPLEN     STEPRMS
   1   -39.80231895   -39.80239622    -0.00007727  0.01361554  0.01361680  0.00453893  0.00944110  0.00944499  0.00314833
   2   -39.80239622   -39.80240115    -0.00000493  0.00331098  0.00331174  0.00110391  0.00303491  0.00303768  0.00101256
   3   -39.80240115   -39.80240115    -0.00000000  0.00007224  0.00007246  0.00002415  0.00006483  0.00006537  0.00002179

 Geometry written to block  1 of record 700


 **********************************************************************************************************************************
 DATASETS  * FILE   NREC   LENGTH (MB)   RECORD NAMES
              1      20        2.88       500      610      700      900      950      970     1000      129      960     1100   
                                          VAR    BASINP    GEOM    SYMINP    ZMAT    AOBASIS   BASIS     P2S    ABASIS      S 
                                         1400     1410     1200     1210     1080     1600     1650     1300     1700     1800   
                                           T        V       H0       H01     AOSYM     SMH    MOLCAS    ERIS     OPER     GRID   

              2       4        0.29       700     1000     1800     2100   
                                         GEOM     BASIS    GRID      RKS  

 PROGRAMS   *        TOTAL      OPTG        KS       INT
 CPU TIMES  *        11.29      8.06      2.58      0.15
 REAL TIME  *        15.09 SEC
 DISK USED  *         7.62 MB      
 **********************************************************************************************************************************


 PROGRAM * HESSIAN

 Computing numerical hessian using default procedure for command KS-SCF

 Symmetry elements for unique displacements: Y  Z  

 Using no symmetry in wavefunction calculations

 Running default procedure: KS-SCF000


 Recomputing wavefunction at reference geometry

 Numerically approximating hessian using central gradient differences

 Task list generated. Total number of displacements:     13

    5 tasks completed, CPU=    30.45 sec, Elapsed=    35.31 sec
   10 tasks completed, CPU=    58.70 sec, Elapsed=    67.96 sec

 Numerical KS-SCF000 hessian completed. CPU-time:    76.22 sec, Elapsed:    88.20 sec

 KS-SCF hessian saved to record  5300.2

 FREQUENCIES * CALCULATION OF HARMONIC VIBRATIONAL SPECTRA FOR KS-SCF


 Permanent Dipole Moment [debye]
   1-  3    0.001980    0.000000    0.000000

 Dipole Moment Norm    0.0019798 [debye]

 Dipole Moment Derivatives [debye/ang]
                   1             2             3             4             5             6             7             8
         1     0.0678476     0.0000000     0.0000000    -0.3834258     0.0000000     0.0000000     0.1578011    -0.3124463
         2    -0.0000000     0.0735236     0.0000000     0.0000000     0.3330512     0.0000000    -0.3102970    -0.2032793
         3     0.0000000     0.0000000    -2.7240499     0.0000000     0.0000000     0.9219872    -0.0000000     0.0000000
                   9            10            11            12
         1     0.0000000     0.1578011     0.3124463     0.0000000
         2     0.0000000     0.3102970    -0.2032793    -0.0000000
         3     0.9010920    -0.0000000    -0.0000000     0.9010920

 Projecting out rotations and translations

   Low Vibration      Wavenumber
        Nr             [1/cm] 
        1                0.00
        2                0.00
        3                0.00
        4                0.00
        5                0.00
        6                0.00

     Vibration        Wavenumber
        Nr             [1/cm] 
        1              561.27
        2             1431.41
        3             1431.49
        4             3128.25
        5             3315.62
        6             3316.03

 FREQUENCIES * CALCULATION OF NORMAL MODES FOR KS-SCF


 Atomic Coordinates

  Nr  Atom  Charge       X              Y              Z

   1   C     6.00   -0.000035591    0.000000000    0.000000000
   2   H1    1.00    2.047354705    0.000000000    0.000000000
   3   H2    1.00   -1.023465296   -1.773245234    0.000000000
   4   H3    1.00   -1.023465296    1.773245234    0.000000000

 Frequencies dumped to record   5400.2

 Gradient norm at reference geometry: 0.13650D-03

 Normal Modes

                              1 B1        2 A1        3 B2        4 A1        5 A1 
 Wavenumbers [cm-1]          561.27     1431.41     1431.49     3128.25     3315.62
 Intensities [km/mol]        129.83        7.57        7.36        0.00        8.88
 Intensities [relative]      100.00        5.83        5.67        0.00        6.84
           CX1             -0.00000    -0.08870     0.00000    -0.00013    -0.09422
           CY1              0.00000    -0.00000    -0.08869    -0.00000     0.00000
           CZ1             -0.12940     0.00000    -0.00000    -0.00000    -0.00000
           H1X2            -0.00000    -0.06646     0.00000     0.57603     0.76772
           H1Y2            -0.00000     0.00000     0.77105    -0.00000     0.00000
           H1Z2             0.51391    -0.00000     0.00000     0.00000     0.00000
           H2X3            -0.00000     0.56171    -0.36266    -0.28726     0.17752
           H2Y3             0.00000    -0.36257     0.14289    -0.49764     0.34200
           H2Z3             0.51404    -0.00000     0.00000     0.00000     0.00000
           H3X4             0.00000     0.56171     0.36266    -0.28726     0.17752
           H3Y4             0.00000     0.36257     0.14289     0.49764    -0.34200
           H3Z4             0.51404    -0.00000    -0.00000     0.00000     0.00000

                              6 B2 
 Wavenumbers [cm-1]         3316.03
 Intensities [km/mol]          8.85
 Intensities [relative]        6.82
           CX1             -0.00000
           CY1             -0.09423
           CZ1              0.00000
           H1X2             0.00000
           H1Y2            -0.01991
           H1Z2             0.00000
           H2X3             0.34127
           H2Y3             0.57139
           H2Z3             0.00000
           H3X4            -0.34127
           H3Y4             0.57139
           H3Z4             0.00000


 Normal Modes of low/zero frequencies

                                  1           2           3           4           5
 Wavenumbers [cm-1]            0.00        0.00        0.00        0.00        0.00
 Intensities [km/mol]          0.00        0.00        0.00        0.00        0.00
 Intensities [relative]        0.00        0.00        0.00        0.00        0.00
           CX1              0.04394    -0.03021    -0.00098     0.02332     0.15797
           CY1              0.25153    -0.02729    -0.00024     0.01071    -0.02464
           CZ1              0.03607     0.21480     0.00732    -0.11808    -0.03087
           H1X2             0.04394    -0.03021    -0.00098     0.02332     0.15797
           H1Y2             0.24751    -0.14082    -0.00641     0.10027    -0.47048
           H1Z2             0.04478     0.61517    -0.02443     0.58810    -0.01718
           H2X3             0.04045    -0.12854    -0.00632     0.10088    -0.22817
           H2Y3             0.25354     0.02946     0.00284    -0.03405     0.19822
           H2Z3             0.03317     0.01967    -0.68025    -0.50560    -0.03630
           H3X4             0.04742     0.06812     0.00436    -0.05425     0.54411
           H3Y4             0.25354     0.02946     0.00284    -0.03405     0.19822
           H3Z4             0.03025     0.00966     0.72665    -0.43656    -0.03913

                                  6
 Wavenumbers [cm-1]            0.00
 Intensities [km/mol]          0.00
 Intensities [relative]        0.00
           CX1              0.19537
           CY1             -0.04214
           CZ1              0.06420
           H1X2             0.19537
           H1Y2             0.29098
           H1Z2             0.02865
           H2X3             0.48389
           H2Y3            -0.20866
           H2Z3             0.08185
           H3X4            -0.09315
           H3Y4            -0.20866
           H3Z4             0.08210


 Zero point energy:  0.03003551 [H]     6592.03 [1/CM]       78.86 [KJ/MOL]
 Frequency information read from record  5400.2

 Dump information in style MOLDEN to ch4_6-31++g.molpro                                                              

 Molecular orbitals read from record     2101.2  Type=RKS/CANONICAL (state 1.1)
 Occupation numbers read from record     2101.2  Type=RKS/RHF (state 1.1)
 Orbital energies read from record       2101.2  Type=RKS/CANONICAL (state 1.1)
 Redundancy group numbers read from rec  2101.2  Type=RKS/RHF (state 1.1)

 DUMP ORBITAL  1.1 AS ORBITAL    1  occ=    2.0000  eig=  -10.1882  GROUP=   2
 DUMP ORBITAL  2.1 AS ORBITAL    2  occ=    2.0000  eig=   -0.6691  GROUP=   2
 DUMP ORBITAL  3.1 AS ORBITAL    3  occ=    2.0000  eig=   -0.4195  GROUP=   2
 DUMP ORBITAL  4.1 AS ORBITAL    4  occ=    2.0000  eig=   -0.4194  GROUP=   2
 DUMP ORBITAL  5.1 AS ORBITAL    5  occ=    1.0000  eig=   -0.2306  GROUP=   1

 Total charge:       9.000000
 Frequency information read from record  5400.2

 **********************************************************************************************************************************

        KS-SCF          KS-SCF          KS-SCF          KS-SCF          KS-SCF          KS-SCF          KS-SCF          KS-SCF  
    -39.80240115    -39.80240100    -39.80238671    -39.80238633    -39.80239475    -39.80239466    -39.80240099    -39.80239880
 **********************************************************************************************************************************
 Variable memory released
