[Molden Format]
[Molpro variables]
_NUMVAR=  687.0000000000000    
_EV2006= 0.3674930886769165E-01
_EV= 0.3674932534394180E-01
_KJOULE= 0.3808798324128737E-03
_KJOULE/MOL= 0.3808798324128737E-03
_CM= 0.4556335267302901E-05
_CM-1= 0.4556335267302901E-05
_KCAL= 0.1593601117815568E-02
_KCAL/MOL= 0.1593601117815568E-02
_KELVIN2006= 0.3166828861084835E-05
_KELVIN= 0.3166814820820034E-05
_HERTZ2006= 0.1519829850815779E-15
_HERTZ= 0.1519829846011223E-15
_HZ2006= 0.1519829850815779E-15
_HZ= 0.1519829846011223E-15
_TOA2006= 0.5291772490000000    
_TOA= 0.5291772090000000    
_TOANG2006= 0.5291772490000000    
_TOANG= 0.5291772090000000    
_TORAD= 0.1745329251994330E-01
_TOCM=  219474.6306700000    
_TODEBYE=  2.541580000000000    
_TOEV2006=  27.21139610000000    
_TOEV=  27.21138390000000    
_TOHERTZ2006=  6579683899900000.    
_TOHERTZ=  6579683920700000.    
_TOHZ2006=  6579683899900000.    
_TOHZ=  6579683920700000.    
_TOK2006=  315773.3000000000    
_TOK=  315774.7000000000    
_TOKCAL=  627.5096000000000    
_TOKELVIN2006=  315773.3000000000    
_TOKELVIN=  315774.7000000000    
_TOKJ=  2625.500000000000    
_TOKJOULE=  2625.500000000000    
_ANG2006=  1.889725988578923    
_ANG=  1.889726131421507    
_ANGSTROM2006=  1.889725988578923    
_ANGSTROM=  1.889726131421507    
_IGNORE_UNDEF=  2.000000000000000    
_STRICTCHECK=  0.000000000000000    
_SEW_ONEEL=  0.000000000000000    
_CPPDONE=FALSE
_DKROLL_DONE=  0.000000000000000    
_FOCKDONE=TRUE
_GRADONE=FALSE
_HESSDONE=TRUE
_INTDONE=TRUE
_SCFDONE=TRUE
_MODUL_CUDA=FALSE
_MODUL_SLATER=FALSE
_MODUL_MRCC=FALSE
_MRCC_EXEC=
_FITC_AO_SAVED=FALSE
_FITC_MO_SAVED=FALSE
_SHARED_FS=TRUE
_LSTYP=SEWARD
_INTYP=INTS
_GEOMTYP=ZMAT
_GRADTYP=ALASKA
_DIRECT=FALSE
_SYNCM=  0.000000000000000    
_DFTNAME=B3LYP
_DFTFUNC=B88
_BASIS=6-31G
_ZSYMEL=
_ZORIENT=  1.000000000000000    
_NELEC=  9.000000000000000    
!SPIN=  1.000000000000000    
_OPTCONV= 0.6943242279616663E-04
_QSDSTEP=  0.000000000000000    
_QSDIRC=  0.000000000000000    
_PROGRAM=FREQ
_CPUSTEP=  0.000000000000000    
_SYSSTEP=  0.000000000000000    
_WALLSTEP=  0.000000000000000    
!DFSCF=  0.000000000000000    
!SCSGRD=  0.000000000000000    
_BASINP=  610.0000000000000    
_CPUTOT=  65.92000000000000    
_CPUSORT= 0.3999999999999204E-01
_SYSSORT= 0.9999999999999787E-02
_WALLSORT= 0.1000000005587935    
_DFTEXFAC= 0.2000000000000000    
_DFTFAC= 0.7200000000000000    
_DFTFUN= -5.223474683501099    
_DFTFUNS= -6.207180527888921    
_DMX= 0.1363342085770880E-04
_DMY=-0.7130407375655068E-13
_DMZ=-0.1708217532525113E-14
_FREQUENCIES= 0.2193153392969549E-04
_ENERGY= -39.79789884113150    
_ENUC=  9.643256675029107    
_FREQSTEP=  14.00000000000000    
_GRADENERG= -39.79789870896284    
_GRADEXFAC= 0.2000000000000000    
_GRADMETHOD=  2.000000000000000    
_VIRIAL= 0.1816748040317776E-04
_GRID=  1800.200000000000    
!GRID_FREEZE= -1.000000000000000    
_GRID_SPARSITY= 0.2000000000000002E-02
_GRID_RMAX=  6.068530187936071    
_ITERATIONS=  2.000000000000000    
_LASTNELEC=  9.000000000000000    
_LASTSPIN=  1.000000000000000    
_LASTSYM=  1.000000000000000    
_MPP_PROG=  0.000000000000000    
_NGRID=  12610.00000000000    
_NPROC_MPP=  1.000000000000000    
_NPROC_SMP=  1.000000000000000    
_NUMSTEP=  0.000000000000000    
_OPTCONVMX= 0.6918968078423045E-04
_OPTCONVRMS= 0.2314414093205554E-04
_OPTGRAD= 0.7754354495008208E-04
_OPTGRADMX= 0.7744321502819335E-04
_OPTGRADRMS= 0.2584784831669403E-04
_OPTSTEP=  3.000000000000000    
_ORBITAL=  2101.200000000000    
_PI=  3.141592653589793    
_SEIG_MIN= 0.3244005956556002E-01
_SEWPROP=TRUE
_STATUS=  1.000000000000000    
_SYSTOT=  3.550000000000000    
_VERSION=  2010001.000000000    
_WALLTOT=  83.94000000000000    
_ZPE= 0.3000760312972848E-01
_DATE=17-Aug-24
_LASTORB=RKS
_MACHINE=Linux-3.10.0-1160.108.1.el7.x86_64/molmod(x86_64) 64 bit serial version
_OUTPUT=/home/ospite/Desktop/MMfP/Project6/CH3/molpro/DFT/ch3_Pople631.xml
_PGROUP=C1
_TIME=18:23:28
_LIBMOL=/usr/local/molpro/molpros_2010_1_Linux_x86_64_i8/lib/
!SURFREC=  0.000000000000000    
!POLYREC=  0.000000000000000    
!DIPREC=  0.000000000000000    
!VSCFREC=  0.000000000000000    
!VCIREC=  0.000000000000000    
!PVCIREC=  0.000000000000000    
!VMP2REC=  0.000000000000000    
!VMCSCFREC=  0.000000000000000    
!GAREC=  0.000000000000000    
!SCFORB=  21002.00000000000    
!NEWMOL=  0.000000000000000    
!NEWSYM=  0.000000000000000    
_SLFILES=slscratch
_NGSSTO=  9.000000000000000    
_SIN=SIN
_COS=COS
_TAN=TAN
_ACOS=ACOS
_ASIN=ASIN
_ATAN=ATAN
_COSH=COSH
_SINH=SINH
_TANH=TANH
_ABS=ABS
_MOD=MOD
_ERF=ERF
_REFC=REFC
_ERFC=ERFC
_HYPOT=HYPOT
_J0=J0
_J1=J1
_JN=JN
_GAMMA=GAMMA
_LGAMMA=LGAMMA
_Y0=Y0
_Y1=Y1
_YN=YN
_EXP=EXP
_LOG=LOG
_LOG10=LOG10
_SQRT=SQRT
_INT=INT
_NINT=NINT
_MAX=MAX
_MIN=MIN
_COSMO=  0.000000000000000    
_COSMOIT=  0.000000000000000    
_COSMOES=  0.000000000000000    
_COSMOEDS=  0.000000000000000    
_COSMOEC=  0.000000000000000    
_COSMOEDCORR=  0.000000000000000    
_FEPSI=  1.000000000000000    
_SL_IsMM=  0.000000000000000    
_SL_NSYM=  0.000000000000000    
_SL_System_BitSw=  0.000000000000000    
_SL_Unique_atoms=  0.000000000000000    
_SL_GRAD=  0.000000000000000    
_SL_MAXUPD_Hess=  5.000000000000000    
_SL_N_PRINT_COD=  5.000000000000000    
_SL_PRINT_CODES=  0.000000000000000    
_SL_BasType=  0.000000000000000    
_SL_Energy_Pred=  0.000000000000000    
_SL_New_Coords=  0.000000000000000    
_SL_Total_Nuclea=  0.000000000000000    
_SL_Highest_Mltp=  0.000000000000000    
_SL_Ref_Geom=  0.000000000000000    
!LATTICE= -1.000000000000000    
!NEWLATTICE=  0.000000000000000    
!LATGRAD_VAR=FALSE
!SEW_LATTICE=  1.000000000000000    
!LOCAL=  0.000000000000000    
!SAVEOCC=  0.000000000000000    
!SAVEDOM= -1.000000000000000    
!RESTDOM= -1.000000000000000    
!SAVEDOM_HF= -1.000000000000000    
!RESTDOM_HF= -1.000000000000000    
!HESSREC=  5300.200000000000    
!FREQREC=  5400.200000000000    
!NMODREC=  5450.200000000000    
!GTASKS=  0.000000000000000    
!HTASKS=  5500.200000000000    
!THRCHG= 0.1000000000000000    
!DEBUG= -1.000000000000000    
!CFIT_CPHF=  0.000000000000000    
!RDOMAUX_CPHF=  5.000000000000000    
!THRAO_CPHF= 0.9999999999999999E-11
!THRMO_CPHF= 0.9999999999999999E-11
!THROV_CPHF= 0.1000000000000000E-11
!THRSW_CPHF= 0.1000000000000000E-09
!THRPROD_CPHF= 0.9999999999999999E-11
!THRAOPR_CPHF= 0.1000000000000000E-11
!CFIT_SCFGRD=  0.000000000000000    
!RDOMAUX_SCFGRD=  7.000000000000000    
!THRAO_SCFGRD= 0.9999999999999999E-11
!THRMO_SCFGRD= 0.9999999999999999E-11
!THROV_SCFGRD= 0.1000000000000000E-11
!THRSW_SCFGRD= 0.1000000000000000E-09
!THRPROD_SCFGRD= 0.9999999999999999E-11
!THRAOPR_SCFGRD= 0.1000000000000000E-11
!LOCFIT_SCF=  0.000000000000000    
!LOCFIT_MP2= -1.000000000000000    
_RIDOM=  0.000000000000000    
!CC2_METHOD=  0.000000000000000    
_BASIS2006=FALSE
_SVDDEL= -1.000000000000000    
_SVDDELA= -1.000000000000000    
_SVDDELP= -1.000000000000000    
_SVDDELF= -1.000000000000000    
_SVDDELS= -1.000000000000000    
_SVDDEL_ABS= -1.000000000000000    
_SVDDELA_ABS= -1.000000000000000    
_SVDDELP_ABS= -1.000000000000000    
_SVDDELF_ABS= -1.000000000000000    
_SVDDELS_ABS= -1.000000000000000    
_MAXBASIS=  0.000000000000000    
!OPT_CONICAL=  0.000000000000000    
!CLEARSP_JGRID=  0.000000000000000    
D=  1.082803447698173    
A=  119.9977972760488    
T=  0.000000000000000    
GX1=-0.9134564247559318E-05
GY1= -0.000000000000000    
GZ1=  0.000000000000000    
GX2=  2.046192835744291    
GY2= -0.000000000000000    
GZ2=  0.000000000000000    
GX3= -1.023041992384925    
GY3= -1.772102219149279    
GZ3=  0.000000000000000    
GX4= -1.023041992384925    
GY4=  1.772102219149279    
GZ4=  0.000000000000000    
CX1=-0.9134564247559318E-05
CY1=  0.000000000000000    
CZ1=  0.000000000000000    
H1X2=  2.046192835744291    
H1Y2=  0.000000000000000    
H1Z2=  0.000000000000000    
H2X3= -1.023041992384925    
H2Y3= -1.772102219149279    
H2Z3=  0.000000000000000    
H3X4= -1.023041992384925    
H3Y4=  1.772102219149279    
H3Z4=  0.000000000000000    
[Atoms] Angs
C     1    6        -0.0000048338       -0.0000000000        0.0000000000
H     2    1         1.0827986139       -0.0000000000        0.0000000000
H     3    1        -0.5413705062       -0.9377561064        0.0000000000
H     4    1        -0.5413705062        0.9377561064        0.0000000000
[GTO]
  1 0
 s    6  1.00
  0.3047524900D+04  0.1834737091D-02
  0.4573695200D+03  0.1403732293D-01
  0.1039486800D+03  0.6884262165D-01
  0.2921015500D+02  0.2321844388D+00
  0.9286663000D+01  0.4679413476D+00
  0.3163927000D+01  0.3623119882D+00
 s    3  1.00
  0.7868272300D+01 -0.1193324245D+00
  0.1881288500D+01 -0.1608541561D+00
  0.5442492600D+00  0.1143456443D+01
 s    1  1.00
  0.1687144800D+00  0.1000000000D+01
 p    3  1.00
  0.7868272300D+01  0.6899906693D-01
  0.1881288500D+01  0.3164239597D+00
  0.5442492600D+00  0.7443082892D+00
 p    1  1.00
  0.1687144800D+00  0.1000000000D+01
  
  2 0
 s    3  1.00
  0.1873113700D+02  0.3349460400D-01
  0.2825394400D+01  0.2347269500D+00
  0.6401216900D+00  0.8137573301D+00
 s    1  1.00
  0.1612777600D+00  0.1000000000D+01
  
  3 0
 s    3  1.00
  0.1873113700D+02  0.3349460400D-01
  0.2825394400D+01  0.2347269500D+00
  0.6401216900D+00  0.8137573301D+00
 s    1  1.00
  0.1612777600D+00  0.1000000000D+01
  
  4 0
 s    3  1.00
  0.1873113700D+02  0.3349460400D-01
  0.2825394400D+01  0.2347269500D+00
  0.6401216900D+00  0.8137573301D+00
 s    1  1.00
  0.1612777600D+00  0.1000000000D+01


[MO]
 Sym=      1.1
 Ene=     -10.1751
 Spin= Alpha
 Occup=    2.000000
1 0.99510727539254
2 0.034033549210826
3 -0.022197041109193
4 0.000000074776110
5 -0.000000000000001
6 0.000000000000000
7 -0.000000369307003
8 0.000000000000001
9 -0.000000000000000
10 -0.001175120579378
11 0.004980629344034
12 -0.001175186015063
13 0.004980380265042
14 -0.001175186015063
15 0.004980380265041
 Sym=      2.1
 Ene=      -0.6586
 Spin= Alpha
 Occup=    2.000000
1 -0.20072618685424
2 0.39731673126773
3 0.35455444998113
4 0.000007537316087
5 -0.000000000000042
6 -0.000000000000000
7 -0.000001840768749
8 0.000000000000005
9 0.000000000000000
10 0.15597118205537
11 0.057122167126224
12 0.15596862699555
13 0.057121632636912
14 0.15596862699555
15 0.057121632636900
 Sym=      3.1
 Ene=      -0.4095
 Spin= Alpha
 Occup=    2.000000
1 -0.000000000000005
2 -0.000000000000018
3 0.000000000000028
4 -0.000000000419584
5 0.45204555683825
6 -0.000000000000000
7 -0.000000000164705
8 0.17745109048561
9 -0.000000000000000
10 -0.000000000270950
11 -0.000000000217367
12 -0.25281925496960
13 -0.20279972991570
14 0.25281925524058
15 0.20279973013310
 Sym=      4.1
 Ene=      -0.4095
 Spin= Alpha
 Occup=    2.000000
1 0.000001756008690
2 -0.000006410138698
3 0.000014838492142
4 0.45204482820555
5 0.000000000419581
6 0.000000000000000
7 0.17744160984345
8 0.000000000164708
9 0.000000000000000
10 0.29192974447373
11 0.23419155896576
12 -0.14596198132733
13 -0.11711260699705
14 -0.14596198085801
15 -0.11711260662058
 Sym=      5.1
 Ene=      -0.2197
 Spin= Alpha
 Occup=    1.000000
1 -0.000000000000000
2 -0.000000000000001
3 0.000000000000003
4 -0.000000000000000
5 -0.000000000000000
6 0.60013096423221
7 0.000000000000000
8 -0.000000000000000
9 0.52799063696206
10 -0.000000000000000
11 -0.000000000000001
12 -0.000000000000000
13 -0.000000000000001
14 -0.000000000000000
15 0.000000000000000
 Sym=      6.1
 Ene=       0.1164
 Spin= Alpha
 Occup=    0.000000
1 0.15410845083738
2 -0.23559154339538
3 -2.19239946081020
4 -0.000033089310628
5 0.000000000000087
6 -0.000000000000001
7 -0.000506949792692
8 0.000000000000162
9 0.000000000000001
10 0.073524368974290
11 1.08750111471132
12 0.073477084272234
13 1.08672203787889
14 0.073477084272196
15 1.08672203787844
 Sym=      7.1
 Ene=       0.1838
 Spin= Alpha
 Occup=    0.000000
1 -0.000000000000038
2 0.000000000000054
3 0.000000000000519
4 -0.000000000135395
5 0.40928378369168
6 0.000000000000000
7 -0.000000000479658
8 1.45065436012488
9 0.000000000000000
10 0.000000000030033
11 0.000000000624191
12 0.078678860092191
13 1.63533750059348
14 -0.078678860122264
15 -1.63533750121842
 Sym=      8.1
 Ene=       0.1839
 Spin= Alpha
 Occup=    0.000000
1 -0.000037416030443
2 0.000116798313280
3 0.000367460884240
4 -0.40938917941651
5 -0.000000000135353
6 0.000000000000000
7 -1.45034352830273
8 -0.000000000479774
9 -0.000000000000000
10 0.090811852193671
11 1.88793298194264
12 -0.045452783279226
13 -0.94426375769205
14 -0.045452783227193
15 -0.94426375661036
 Sym=      9.1
 Ene=       0.5408
 Spin= Alpha
 Occup=    0.000000
1 -0.000000000000000
2 0.000000000000003
3 -0.000000000000003
4 0.000000000000002
5 -0.000000000000002
6 -1.05853231274265
7 -0.000000000000004
8 0.000000000000004
9 1.09630001305800
10 0.000000000000001
11 0.000000000000002
12 0.000000000000000
13 0.000000000000000
14 -0.000000000000001
15 -0.000000000000002
 Sym=     10.1
 Ene=       0.5605
 Spin= Alpha
 Occup=    0.000000
1 0.000000000000002
2 0.000000000000075
3 -0.000000000000199
4 0.000000000177899
5 -0.79705046640953
6 0.000000000000002
7 -0.000000000410952
8 1.84110413570398
9 -0.000000000000002
10 0.000000000102661
11 0.000000000136029
12 0.39836788371701
13 0.52748696451862
14 -0.39836788381974
15 -0.52748696465443
 Sym=     11.1
 Ene=       0.5606
 Spin= Alpha
 Occup=    0.000000
1 0.000013637515357
2 -0.000061159747338
3 0.000010288105048
4 -0.79692860572137
5 -0.000000000177913
6 -0.000000000000002
7 1.84095679051373
8 0.000000000410965
9 0.000000000000002
10 -0.46001701901375
11 -0.60897809383087
12 0.23012078480865
13 0.30444187392124
14 0.23012078463080
15 0.30444187368575
 Sym=     12.1
 Ene=       0.7240
 Spin= Alpha
 Occup=    0.000000
1 -0.064004145320096
2 -0.90848282141898
3 1.89569519916810
4 -0.000102268913001
5 0.000000000000026
6 -0.000000000000001
7 0.000275234102764
8 -0.000000000000024
9 0.000000000000001
10 -0.65304572888885
11 -0.062444753572660
12 -0.65306422421753
13 -0.062164271270247
14 -0.65306422421761
15 -0.062164271270150
 Sym=     13.1
 Ene=       0.9580
 Spin= Alpha
 Occup=    0.000000
1 -0.000049760139885
2 0.001738289757721
3 -0.003247779566329
4 0.83865108707899
5 -0.000000008017180
6 0.000000000000000
7 -1.01093080045081
8 0.000000009662512
9 -0.000000000000000
10 -1.01189707542132
11 1.53799087079693
12 0.50532002621994
13 -0.76739029412834
14 0.50532004296964
15 -0.76739031957542
 Sym=     14.1
 Ene=       0.9580
 Spin= Alpha
 Occup=    0.000000
1 0.000000000000390
2 -0.000000000013111
3 0.000000000024346
4 -0.000000008017668
5 -0.83860205765024
6 0.000000000000000
7 0.000000009664686
8 1.01070550445145
9 -0.000000000000000
10 0.000000009673143
11 -0.000000014701291
12 -0.87601230912708
13 1.33088839802278
14 0.87601229946359
15 -1.33088838334562
 Sym=     15.1
 Ene=       0.9709
 Spin= Alpha
 Occup=    0.000000
1 0.046548273698412
2 -1.89458677097352
3 3.59830521844708
4 0.000810874698561
5 -0.000000000001613
6 -0.000000000000001
7 -0.001053318699084
8 0.000000000001933
9 0.000000000000001
10 0.40327665588821
11 -1.15788957170923
12 0.40466817329919
13 -1.16017734018620
14 0.40466817330244
15 -1.16017734019119
 [FREQ]
      0.00
      0.00
      0.00
      0.00
      0.00
      0.00
    507.92
   1439.74
   1440.00
   3135.37
   3324.27
   3324.51
 [FR-COORD]
C         -0.0000091346       -0.0000000000        0.0000000000
H          2.0461928357       -0.0000000000        0.0000000000
H         -1.0230419924       -1.7721022191        0.0000000000
H         -1.0230419924        1.7721022191        0.0000000000
 [FR-NORM-COORD]
 Vibration                    1
         -0.01734339         -0.06158883          0.22467173
         -0.01734339          0.11940715          0.45496799
          0.13940720         -0.15208080          0.09769725
         -0.17409399         -0.15208080          0.12136528
 Vibration                    2
         -0.02331306          0.01921499          0.05143897
         -0.02331306          0.06394100         -0.44803713
          0.01542166         -0.00314653          0.82976420
         -0.06204778         -0.00314653         -0.22744342
 Vibration                    3
         -0.02674565          0.02345506          0.05238743
         -0.02674565          0.07131091         -0.52060088
          0.01469966         -0.00047127         -0.12642820
         -0.06819095         -0.00047127          0.80415323
 Vibration                    4
          0.21083930         -0.13956540         -0.00672173
          0.21083930         -0.13296140         -0.16522951
          0.21655866         -0.14286717          0.07143126
          0.20511995         -0.14286717          0.07362249
 Vibration                    5
          0.05766650          0.07562031          0.10176240
          0.05766650         -0.40821698          0.11921653
         -0.36135818          0.31752284          0.09142689
          0.47669118          0.31752284          0.09464492
 Vibration                    6
          0.13104965          0.19131858          0.01561111
          0.13104965          0.43527604          0.08762968
          0.34232770          0.06934797         -0.02041551
         -0.08022840          0.06934797         -0.02037605
 Vibration                    7
         -0.00000000          0.00000000         -0.12940149
         -0.00000000          0.00000000          0.51397645
          0.00000000         -0.00000000          0.51401068
         -0.00000000         -0.00000000          0.51401068
 Vibration                    8
         -0.08875359         -0.00000000          0.00000000
         -0.06595298          0.00000000         -0.00000000
          0.56178741         -0.36241884         -0.00000000
          0.56178741          0.36241884         -0.00000000
 Vibration                    9
          0.00000000         -0.08875262         -0.00000000
          0.00000000          0.77103170         -0.00000000
         -0.36242472          0.14328927         -0.00000000
          0.36242472          0.14328927         -0.00000000
 Vibration                   10
         -0.00006781         -0.00000000         -0.00000000
          0.57561925         -0.00000000          0.00000000
         -0.28740559         -0.49778561          0.00000000
         -0.28740559          0.49778561          0.00000000
 Vibration                   11
         -0.09416762         -0.00000000         -0.00000000
          0.76806443         -0.00000000          0.00000000
          0.17703655          0.34194055          0.00000000
          0.17703655         -0.34194055          0.00000000
 Vibration                   12
          0.00000000         -0.09416856          0.00000000
         -0.00000000         -0.02039202          0.00000000
          0.34156690          0.57127038          0.00000000
         -0.34156690          0.57127038          0.00000000
