[Molden Format]
[Molpro variables]
_NUMVAR=  687.0000000000000    
_EV2006= 0.3674930886769165E-01
_EV= 0.3674932534394180E-01
_KJOULE= 0.3808798324128737E-03
_KJOULE/MOL= 0.3808798324128737E-03
_CM= 0.4556335267302901E-05
_CM-1= 0.4556335267302901E-05
_KCAL= 0.1593601117815568E-02
_KCAL/MOL= 0.1593601117815568E-02
_KELVIN2006= 0.3166828861084835E-05
_KELVIN= 0.3166814820820034E-05
_HERTZ2006= 0.1519829850815779E-15
_HERTZ= 0.1519829846011223E-15
_HZ2006= 0.1519829850815779E-15
_HZ= 0.1519829846011223E-15
_TOA2006= 0.5291772490000000    
_TOA= 0.5291772090000000    
_TOANG2006= 0.5291772490000000    
_TOANG= 0.5291772090000000    
_TORAD= 0.1745329251994330E-01
_TOCM=  219474.6306700000    
_TODEBYE=  2.541580000000000    
_TOEV2006=  27.21139610000000    
_TOEV=  27.21138390000000    
_TOHERTZ2006=  6579683899900000.    
_TOHERTZ=  6579683920700000.    
_TOHZ2006=  6579683899900000.    
_TOHZ=  6579683920700000.    
_TOK2006=  315773.3000000000    
_TOK=  315774.7000000000    
_TOKCAL=  627.5096000000000    
_TOKELVIN2006=  315773.3000000000    
_TOKELVIN=  315774.7000000000    
_TOKJ=  2625.500000000000    
_TOKJOULE=  2625.500000000000    
_ANG2006=  1.889725988578923    
_ANG=  1.889726131421507    
_ANGSTROM2006=  1.889725988578923    
_ANGSTROM=  1.889726131421507    
_IGNORE_UNDEF=  2.000000000000000    
_STRICTCHECK=  0.000000000000000    
_SEW_ONEEL=  0.000000000000000    
_CPPDONE=FALSE
_DKROLL_DONE=  0.000000000000000    
_FOCKDONE=TRUE
_GRADONE=FALSE
_HESSDONE=TRUE
_INTDONE=TRUE
_SCFDONE=TRUE
_MODUL_CUDA=FALSE
_MODUL_SLATER=FALSE
_MODUL_MRCC=FALSE
_MRCC_EXEC=
_FITC_AO_SAVED=FALSE
_FITC_MO_SAVED=FALSE
_SHARED_FS=TRUE
_LSTYP=SEWARD
_INTYP=INTS
_GEOMTYP=ZMAT
_GRADTYP=ALASKA
_DIRECT=FALSE
_SYNCM=  0.000000000000000    
_DFTNAME=B3LYP
_DFTFUNC=B88
_BASIS=6-31+G
_ZSYMEL=
_ZORIENT=  1.000000000000000    
_NELEC=  9.000000000000000    
!SPIN=  1.000000000000000    
_OPTCONV= 0.6605746104978333E-04
_QSDSTEP=  0.000000000000000    
_QSDIRC=  0.000000000000000    
_PROGRAM=FREQ
_CPUSTEP=  0.000000000000000    
_SYSSTEP=  0.000000000000000    
_WALLSTEP=  0.000000000000000    
!DFSCF=  0.000000000000000    
!SCSGRD=  0.000000000000000    
_BASINP=  610.0000000000000    
_CPUTOT=  81.98999999999999    
_CPUSORT= 0.5999999999998806E-01
_SYSSORT= 0.9999999999999787E-02
_WALLSORT= 0.1099999994039536    
_DFTEXFAC= 0.2000000000000000    
_DFTFAC= 0.7200000000000000    
_DFTFUN= -5.209672823612527    
_DFTFUNS= -6.190804623815086    
_DMX= 0.4827347624249273E-03
_DMY=-0.4576894419017208E-13
_DMZ=-0.1203716534549352E-14
_FREQUENCIES= 0.6527018558471452E-04
_ENERGY= -39.80233882288116    
_ENUC=  9.637691029821665    
_FREQSTEP=  14.00000000000000    
_GRADENERG= -39.80233867412016    
_GRADEXFAC= 0.2000000000000000    
_GRADMETHOD=  2.000000000000000    
_VIRIAL= 0.1858008460019360E-04
_GRID=  1800.200000000000    
!GRID_FREEZE= -1.000000000000000    
_GRID_SPARSITY= 0.1578947368421013E-02
_GRID_RMAX=  6.068530187936071    
_ITERATIONS=  2.000000000000000    
_LASTNELEC=  9.000000000000000    
_LASTSPIN=  1.000000000000000    
_LASTSYM=  1.000000000000000    
_MPP_PROG=  0.000000000000000    
_NGRID=  12610.00000000000    
_NPROC_MPP=  1.000000000000000    
_NPROC_SMP=  1.000000000000000    
_NUMSTEP=  0.000000000000000    
_OPTCONVMX= 0.6555516833806032E-04
_OPTCONVRMS= 0.2201915368326111E-04
_OPTGRAD= 0.7331423224384507E-04
_OPTGRADMX= 0.7311072595380324E-04
_OPTGRADRMS= 0.2443807741461502E-04
_OPTSTEP=  3.000000000000000    
_ORBITAL=  2101.200000000000    
_PI=  3.141592653589793    
_SEIG_MIN= 0.2959957969750710E-01
_SEWPROP=TRUE
_STATUS=  1.000000000000000    
_SYSTOT=  3.940000000000000    
_VERSION=  2010001.000000000    
_WALLTOT=  124.5700000000000    
_ZPE= 0.3004207311506503E-01
_DATE=17-Aug-24
_LASTORB=RKS
_MACHINE=Linux-3.10.0-1160.108.1.el7.x86_64/molmod(x86_64) 64 bit serial version
_OUTPUT=/home/ospite/Desktop/MMfP/Project6/CH3/molpro/DFT/ch3_+.xml
_PGROUP=C1
_TIME=18:16:58
_LIBMOL=/usr/local/molpro/molpros_2010_1_Linux_x86_64_i8/lib/
!SURFREC=  0.000000000000000    
!POLYREC=  0.000000000000000    
!DIPREC=  0.000000000000000    
!VSCFREC=  0.000000000000000    
!VCIREC=  0.000000000000000    
!PVCIREC=  0.000000000000000    
!VMP2REC=  0.000000000000000    
!VMCSCFREC=  0.000000000000000    
!GAREC=  0.000000000000000    
!SCFORB=  21002.00000000000    
!NEWMOL=  0.000000000000000    
!NEWSYM=  0.000000000000000    
_SLFILES=slscratch
_NGSSTO=  9.000000000000000    
_SIN=SIN
_COS=COS
_TAN=TAN
_ACOS=ACOS
_ASIN=ASIN
_ATAN=ATAN
_COSH=COSH
_SINH=SINH
_TANH=TANH
_ABS=ABS
_MOD=MOD
_ERF=ERF
_REFC=REFC
_ERFC=ERFC
_HYPOT=HYPOT
_J0=J0
_J1=J1
_JN=JN
_GAMMA=GAMMA
_LGAMMA=LGAMMA
_Y0=Y0
_Y1=Y1
_YN=YN
_EXP=EXP
_LOG=LOG
_LOG10=LOG10
_SQRT=SQRT
_INT=INT
_NINT=NINT
_MAX=MAX
_MIN=MIN
_COSMO=  0.000000000000000    
_COSMOIT=  0.000000000000000    
_COSMOES=  0.000000000000000    
_COSMOEDS=  0.000000000000000    
_COSMOEC=  0.000000000000000    
_COSMOEDCORR=  0.000000000000000    
_FEPSI=  1.000000000000000    
_SL_IsMM=  0.000000000000000    
_SL_NSYM=  0.000000000000000    
_SL_System_BitSw=  0.000000000000000    
_SL_Unique_atoms=  0.000000000000000    
_SL_GRAD=  0.000000000000000    
_SL_MAXUPD_Hess=  5.000000000000000    
_SL_N_PRINT_COD=  5.000000000000000    
_SL_PRINT_CODES=  0.000000000000000    
_SL_BasType=  0.000000000000000    
_SL_Energy_Pred=  0.000000000000000    
_SL_New_Coords=  0.000000000000000    
_SL_Total_Nuclea=  0.000000000000000    
_SL_Highest_Mltp=  0.000000000000000    
_SL_Ref_Geom=  0.000000000000000    
!LATTICE= -1.000000000000000    
!NEWLATTICE=  0.000000000000000    
!LATGRAD_VAR=FALSE
!SEW_LATTICE=  1.000000000000000    
!LOCAL=  0.000000000000000    
!SAVEOCC=  0.000000000000000    
!SAVEDOM= -1.000000000000000    
!RESTDOM= -1.000000000000000    
!SAVEDOM_HF= -1.000000000000000    
!RESTDOM_HF= -1.000000000000000    
!HESSREC=  5300.200000000000    
!FREQREC=  5400.200000000000    
!NMODREC=  5450.200000000000    
!GTASKS=  0.000000000000000    
!HTASKS=  5500.200000000000    
!THRCHG= 0.1000000000000000    
!DEBUG= -1.000000000000000    
!CFIT_CPHF=  0.000000000000000    
!RDOMAUX_CPHF=  5.000000000000000    
!THRAO_CPHF= 0.9999999999999999E-11
!THRMO_CPHF= 0.9999999999999999E-11
!THROV_CPHF= 0.1000000000000000E-11
!THRSW_CPHF= 0.1000000000000000E-09
!THRPROD_CPHF= 0.9999999999999999E-11
!THRAOPR_CPHF= 0.1000000000000000E-11
!CFIT_SCFGRD=  0.000000000000000    
!RDOMAUX_SCFGRD=  7.000000000000000    
!THRAO_SCFGRD= 0.9999999999999999E-11
!THRMO_SCFGRD= 0.9999999999999999E-11
!THROV_SCFGRD= 0.1000000000000000E-11
!THRSW_SCFGRD= 0.1000000000000000E-09
!THRPROD_SCFGRD= 0.9999999999999999E-11
!THRAOPR_SCFGRD= 0.1000000000000000E-11
!LOCFIT_SCF=  0.000000000000000    
!LOCFIT_MP2= -1.000000000000000    
_RIDOM=  0.000000000000000    
!CC2_METHOD=  0.000000000000000    
_BASIS2006=FALSE
_SVDDEL= -1.000000000000000    
_SVDDELA= -1.000000000000000    
_SVDDELP= -1.000000000000000    
_SVDDELF= -1.000000000000000    
_SVDDELS= -1.000000000000000    
_SVDDEL_ABS= -1.000000000000000    
_SVDDELA_ABS= -1.000000000000000    
_SVDDELP_ABS= -1.000000000000000    
_SVDDELF_ABS= -1.000000000000000    
_SVDDELS_ABS= -1.000000000000000    
_MAXBASIS=  0.000000000000000    
!OPT_CONICAL=  0.000000000000000    
!CLEARSP_JGRID=  0.000000000000000    
D=  1.083428753804419    
A=  119.9918134319584    
T=  0.000000000000000    
GX1=-0.3396983641956730E-04
GY1= -0.000000000000000    
GZ1=  0.000000000000000    
GX2=  2.047349657761228    
GY2= -0.000000000000000    
GZ2=  0.000000000000000    
GX3= -1.023472430074517    
GY3= -1.773232482406178    
GZ3=  0.000000000000000    
GX4= -1.023472430074517    
GY4=  1.773232482406178    
GZ4=  0.000000000000000    
CX1=-0.3396983641956730E-04
CY1=  0.000000000000000    
CZ1=  0.000000000000000    
H1X2=  2.047349657761228    
H1Y2=  0.000000000000000    
H1Z2=  0.000000000000000    
H2X3= -1.023472430074517    
H2Y3= -1.773232482406178    
H2Z3=  0.000000000000000    
H3X4= -1.023472430074517    
H3Y4=  1.773232482406178    
H3Z4=  0.000000000000000    
[Atoms] Angs
C     1    6        -0.0000179761       -0.0000000000        0.0000000000
H     2    1         1.0834107777       -0.0000000000        0.0000000000
H     3    1        -0.5415982840       -0.9383542159        0.0000000000
H     4    1        -0.5415982840        0.9383542159        0.0000000000
[GTO]
  1 0
 s    6  1.00
  0.3047524900D+04  0.1834737091D-02
  0.4573695200D+03  0.1403732293D-01
  0.1039486800D+03  0.6884262165D-01
  0.2921015500D+02  0.2321844388D+00
  0.9286663000D+01  0.4679413476D+00
  0.3163927000D+01  0.3623119882D+00
 s    3  1.00
  0.7868272300D+01 -0.1193324245D+00
  0.1881288500D+01 -0.1608541561D+00
  0.5442492600D+00  0.1143456443D+01
 s    1  1.00
  0.1687144800D+00  0.1000000000D+01
 s    1  1.00
  0.4380000000D-01  0.1000000000D+01
 p    3  1.00
  0.7868272300D+01  0.6899906693D-01
  0.1881288500D+01  0.3164239597D+00
  0.5442492600D+00  0.7443082892D+00
 p    1  1.00
  0.1687144800D+00  0.1000000000D+01
 p    1  1.00
  0.4380000000D-01  0.1000000000D+01
  
  2 0
 s    3  1.00
  0.1873113700D+02  0.3349460400D-01
  0.2825394400D+01  0.2347269500D+00
  0.6401216900D+00  0.8137573301D+00
 s    1  1.00
  0.1612777600D+00  0.1000000000D+01
  
  3 0
 s    3  1.00
  0.1873113700D+02  0.3349460400D-01
  0.2825394400D+01  0.2347269500D+00
  0.6401216900D+00  0.8137573301D+00
 s    1  1.00
  0.1612777600D+00  0.1000000000D+01
  
  4 0
 s    3  1.00
  0.1873113700D+02  0.3349460400D-01
  0.2825394400D+01  0.2347269500D+00
  0.6401216900D+00  0.8137573301D+00
 s    1  1.00
  0.1612777600D+00  0.1000000000D+01


[MO]
 Sym=      1.1
 Ene=     -10.1881
 Spin= Alpha
 Occup=    2.000000
1 0.99511204728297
2 0.034147391084293
3 -0.021855538931336
4 0.001142984560965
5 0.000000353573895
6 -0.000000000000001
7 0.000000000000000
8 -0.000001158417104
9 0.000000000000001
10 -0.000000000000000
11 -0.000000635504666
12 0.000000000000000
13 0.000000000000000
14 -0.001026800473721
15 0.004310753752809
16 -0.001026668451313
17 0.004309125081654
18 -0.001026668451312
19 0.004309125081653
 Sym=      2.1
 Ene=      -0.6691
 Spin= Alpha
 Occup=    2.000000
1 -0.20101806916581
2 0.40069925598021
3 0.36029448017319
4 0.014803309179223
5 0.000041016141776
6 -0.000000000000043
7 -0.000000000000000
8 0.000014666361116
9 0.000000000000011
10 0.000000000000000
11 -0.000113475197161
12 -0.000000000000002
13 -0.000000000000000
14 0.15668903348255
15 0.047900966335495
16 0.15668072235630
17 0.047774213428332
18 0.15668072235629
19 0.047774213428308
 Sym=      3.1
 Ene=      -0.4195
 Spin= Alpha
 Occup=    2.000000
1 -0.000000000000009
2 -0.000000000000009
3 0.000000000000077
4 0.000000000000119
5 -0.000000000139877
6 0.45584920831263
7 -0.000000000000000
8 -0.000000000054731
9 0.17840430362484
10 -0.000000000000000
11 -0.000000000009251
12 0.029229502682377
13 0.000000000000000
14 -0.000000000090289
15 -0.000000000064469
16 -0.25482835533471
17 -0.18223086844637
18 0.25482835542505
19 0.18223086851069
 Sym=      4.1
 Ene=      -0.4194
 Spin= Alpha
 Occup=    2.000000
1 0.000013226068388
2 -0.000053717778676
3 -0.000069837667207
4 -0.000390853580233
5 0.45584402913750
6 0.000000000139875
7 -0.000000000000000
8 0.17833196967922
9 0.000000000054735
10 -0.000000000000000
11 0.030159551308461
12 0.000000000008971
13 0.000000000000000
14 0.29429689077762
15 0.21011735618804
16 -0.14716993931334
17 -0.10483647877368
18 -0.14716993915695
19 -0.10483647866183
 Sym=      5.1
 Ene=      -0.2306
 Spin= Alpha
 Occup=    1.000000
1 -0.000000000000000
2 -0.000000000000001
3 0.000000000000002
4 0.000000000000000
5 0.000000000000000
6 -0.000000000000000
7 0.59640033983674
8 -0.000000000000000
9 0.000000000000001
10 0.46312183723764
11 -0.000000000000000
12 0.000000000000000
13 0.13175868376039
14 0.000000000000000
15 -0.000000000000000
16 -0.000000000000000
17 -0.000000000000000
18 -0.000000000000000
19 -0.000000000000001
 Sym=      6.1
 Ene=       0.0229
 Spin= Alpha
 Occup=    0.000000
1 0.095510082171993
2 -0.16569474163184
3 -0.84639499470970
4 1.37011739937641
5 0.008101172255162
6 0.000000000000060
7 -0.000000000000001
8 0.004370503746935
9 0.000000000000073
10 -0.000000000000000
11 -0.063507343016319
12 -0.000000000000172
13 0.000000000000002
14 0.021371952635635
15 0.038894859338690
16 0.018557578539397
17 0.009000014916303
18 0.018557578539390
19 0.009000014916210
 Sym=      7.1
 Ene=       0.0586
 Spin= Alpha
 Occup=    0.000000
1 0.006145287004731
2 -0.011133276695691
3 -0.065021187807634
4 0.056697214865842
5 -0.19679993854907
6 -0.000000000000041
7 -0.000000000000000
8 -0.19335616607108
9 -0.000000000000045
10 0.000000000000000
11 1.16954504571759
12 0.000000000000255
13 0.000000000000001
14 -0.041047236309846
15 -0.16437827952106
16 0.022935187209016
17 0.10664678909720
18 0.022935187208994
19 0.10664678909714
 Sym=      8.1
 Ene=       0.0647
 Spin= Alpha
 Occup=    0.000000
1 0.000000000000014
2 -0.000000000000004
3 -0.000000000000153
4 0.000000000000233
5 0.000000000000051
6 -0.20475061974920
7 0.000000000000000
8 0.000000000000071
9 -0.21002325446473
10 -0.000000000000000
11 -0.000000000000257
12 1.16137242813612
13 -0.000000000000000
14 0.000000000000002
15 0.000000000000002
16 0.037670514597104
17 0.12806797913585
18 -0.037670514597110
19 -0.12806797913586
 Sym=      9.1
 Ene=       0.0794
 Spin= Alpha
 Occup=    0.000000
1 0.000000000000000
2 0.000000000000001
3 -0.000000000000002
4 -0.000000000000004
5 0.000000000000000
6 -0.000000000000000
7 -0.26223914061097
8 -0.000000000000001
9 0.000000000000000
10 -0.38242284256420
11 -0.000000000000002
12 0.000000000000000
13 1.13011336949598
14 0.000000000000000
15 0.000000000000004
16 0.000000000000000
17 0.000000000000001
18 0.000000000000000
19 0.000000000000001
 Sym=     10.1
 Ene=       0.1918
 Spin= Alpha
 Occup=    0.000000
1 0.12561613019205
2 -0.12228272557376
3 -2.26134696619570
4 -1.26487443269381
5 0.056808558925266
6 0.000000000001341
7 0.000000000000001
8 0.25185346074857
9 0.000000000006272
10 0.000000000000000
11 0.060443608819494
12 0.000000000001853
13 -0.000000000000001
14 0.12373041426339
15 1.09050723639608
16 0.15964820549699
17 1.59592162474600
18 0.15964820549585
19 1.59592162473139
 Sym=     11.1
 Ene=       0.1955
 Spin= Alpha
 Occup=    0.000000
1 -0.020238769927996
2 0.018546882198289
3 0.36906588768882
4 0.21383782575667
5 0.32961326108880
6 0.000000000002684
7 -0.000000000000000
8 1.53177893173421
9 0.000000000012786
10 0.000000000000000
11 0.43610014600111
12 0.000000000003714
13 0.000000000000001
14 -0.17878566846638
15 -2.29256500811200
16 0.052424575713999
17 0.79472350286128
18 0.052424575711774
19 0.79472350283159
 Sym=     12.1
 Ene=       0.1961
 Spin= Alpha
 Occup=    0.000000
1 -0.000000000000348
2 0.000000000000337
3 0.000000000006207
4 0.000000000003313
5 -0.000000000002950
6 0.33000613773385
7 -0.000000000000000
8 -0.000000000013542
9 1.55302655451943
10 0.000000000000000
11 -0.000000000003825
12 0.45689631809260
13 -0.000000000000000
14 0.000000000000978
15 0.000000000014341
16 0.13674476789294
17 1.80848873495862
18 -0.13674476789509
19 -1.80848873498457
 Sym=     13.1
 Ene=       0.6478
 Spin= Alpha
 Occup=    0.000000
1 0.000108748874470
2 0.002074808323140
3 -0.004369290209339
4 -0.001022075443504
5 -0.99471667809325
6 0.000000000003011
7 -0.000000000000003
8 1.91960045357446
9 -0.000000000005834
10 0.000000000000005
11 -0.52406119666735
12 0.000000000001595
13 -0.000000000000002
14 -0.26673525960822
15 -0.44985512339847
16 0.13522440385110
17 0.22589746545537
18 0.13522440385250
19 0.22589746545779
 Sym=     14.1
 Ene=       0.6488
 Spin= Alpha
 Occup=    0.000000
1 0.000000000000002
2 0.000000000000151
3 -0.000000000000340
4 0.000000000000004
5 -0.000000000003018
6 -0.99588548317722
7 0.000000000000019
8 0.000000000005777
9 1.91933875125332
10 -0.000000000000025
11 -0.000000000001595
12 -0.52878352599039
13 0.000000000000010
14 -0.000000000000826
15 -0.000000000001217
16 0.22958591470867
17 0.38985314652747
18 -0.22958591470790
19 -0.38985314652596
 Sym=     15.1
 Ene=       0.6532
 Spin= Alpha
 Occup=    0.000000
1 0.000000000000000
2 -0.000000000000001
3 0.000000000000002
4 -0.000000000000001
5 0.000000000000003
6 -0.000000000000018
7 -1.07744878407989
8 -0.000000000000007
9 0.000000000000034
10 1.41408432357415
11 0.000000000000001
12 -0.000000000000009
13 -0.58656844644484
14 0.000000000000001
15 0.000000000000002
16 0.000000000000004
17 0.000000000000005
18 -0.000000000000004
19 -0.000000000000008
 Sym=     16.1
 Ene=       0.8621
 Spin= Alpha
 Occup=    0.000000
1 -0.030486332080830
2 -1.64567687850893
3 2.75894481150308
4 -0.80348313406647
5 -0.003238155361159
6 -0.000000000000007
7 0.000000000000000
8 0.004285830680784
9 0.000000000000029
10 -0.000000000000001
11 -0.001415021310991
12 -0.000000000000051
13 0.000000000000000
14 -0.46499540178099
15 -0.025537958263035
16 -0.46896700176569
17 -0.019641692734258
18 -0.46896700176587
19 -0.019641692734057
 Sym=     17.1
 Ene=       1.0009
 Spin= Alpha
 Occup=    0.000000
1 -0.061614798981881
2 1.32348505770086
3 -2.85429426810074
4 -0.64173795776244
5 -0.006558164198945
6 -0.000000000000041
7 -0.000000000000000
8 0.006906304182127
9 0.000000000000017
10 0.000000000000001
11 0.003365256100653
12 0.000000000000109
13 -0.000000000000000
14 -0.65404584529539
15 1.41865758691722
16 -0.67083996949535
17 1.44419843729298
18 -0.67083996949496
19 1.44419843729245
 Sym=     18.1
 Ene=       1.0216
 Spin= Alpha
 Occup=    0.000000
1 -0.000681911072464
2 0.008909318246191
3 -0.022001062152680
4 -0.010290280806725
5 0.61426690413762
6 -0.000000000007566
7 0.000000000000000
8 -0.63796102884147
9 0.000000000007860
10 0.000000000000000
11 -0.44535770693261
12 0.000000000005559
13 -0.000000000000000
14 -1.14072677683194
15 1.76949377000583
16 0.55868907078156
17 -0.86206181262634
18 0.55868907080584
19 -0.86206181266398
 Sym=     19.1
 Ene=       1.0223
 Spin= Alpha
 Occup=    0.000000
1 0.000000000000021
2 -0.000000000000482
3 0.000000000000961
4 0.000000000000172
5 -0.000000000007599
6 -0.61233897181352
7 -0.000000000000000
8 0.000000000007874
9 0.63459742820741
10 0.000000000000000
11 0.000000000005506
12 0.44924822959570
13 -0.000000000000000
14 0.000000000014195
15 -0.000000000022108
16 -0.98159453677088
17 1.52011637717640
18 0.98159453675724
19 -1.52011637715558
 [FREQ]
      0.00
      0.00
      0.00
      0.00
      0.00
      0.00
    559.75
   1431.42
   1431.47
   3129.46
   3317.23
   3317.62
 [FR-COORD]
C         -0.0000339698       -0.0000000000        0.0000000000
H          2.0473496578       -0.0000000000        0.0000000000
H         -1.0234724301       -1.7732324824        0.0000000000
H         -1.0234724301        1.7732324824        0.0000000000
 [FR-NORM-COORD]
 Vibration                    1
          0.25317374          0.04898640          0.00043830
          0.25317374          0.05681660         -0.00513477
          0.25995545          0.04507227          0.00327416
          0.24639203          0.04507227          0.00317413
 Vibration                    2
         -0.01116987          0.03945470          0.13630547
         -0.01116987          0.49536768         -0.07238701
          0.38369492         -0.18844537          0.26325941
         -0.40603466         -0.18844537          0.21799236
 Vibration                    3
         -0.00051510          0.00200902          0.00017605
         -0.00051510          0.02204173         -0.00887925
          0.01683517         -0.00800486         -0.69911948
         -0.01786537         -0.00800486          0.70852465
 Vibration                    4
          0.00813489         -0.03509463          0.20649029
          0.00813489         -0.35623917          0.07223216
         -0.27000738          0.12543790          0.26078019
          0.28627717          0.12543790          0.28642530
 Vibration                    5
          0.00324536         -0.01099156          0.07197849
          0.00324536          0.06412812          0.84486772
          0.06830628         -0.04854211         -0.31873756
         -0.06181556         -0.04854211         -0.31000341
 Vibration                    6
         -0.04704876          0.24738522          0.01066410
         -0.04704876          0.13071704          0.06041896
         -0.14809470          0.30570487         -0.01412415
          0.05399718          0.30570487         -0.01429020
 Vibration                    7
          0.00000000          0.00000000         -0.12940149
         -0.00000000          0.00000000          0.51391445
          0.00000000         -0.00000000          0.51404167
         -0.00000000         -0.00000000          0.51404167
 Vibration                    8
         -0.08868942         -0.00000000         -0.00000000
         -0.06652029          0.00000000          0.00000000
          0.56168874         -0.36261347          0.00000000
          0.56168874          0.36261347          0.00000000
 Vibration                    9
          0.00000000         -0.08867786          0.00000000
          0.00000000          0.77105165          0.00000000
         -0.36269220          0.14283387          0.00000000
          0.36269220          0.14283387          0.00000000
 Vibration                   10
         -0.00012059          0.00000000         -0.00000000
          0.57598883          0.00000000         -0.00000000
         -0.28727589         -0.49764665          0.00000000
         -0.28727589          0.49764665          0.00000000
 Vibration                   11
         -0.09422800          0.00000000          0.00000000
          0.76773836          0.00000000         -0.00000000
          0.17755936          0.34193648         -0.00000000
          0.17755936         -0.34193648         -0.00000000
 Vibration                   12
         -0.00000000         -0.09423896         -0.00000000
          0.00000000         -0.01982646          0.00000000
          0.34123905          0.57140707          0.00000000
         -0.34123905          0.57140707         -0.00000000
