[Molden Format]
[Molpro variables]
_NUMVAR=  687.0000000000000    
_EV2006= 0.3674930886769165E-01
_EV= 0.3674932534394180E-01
_KJOULE= 0.3808798324128737E-03
_KJOULE/MOL= 0.3808798324128737E-03
_CM= 0.4556335267302901E-05
_CM-1= 0.4556335267302901E-05
_KCAL= 0.1593601117815568E-02
_KCAL/MOL= 0.1593601117815568E-02
_KELVIN2006= 0.3166828861084835E-05
_KELVIN= 0.3166814820820034E-05
_HERTZ2006= 0.1519829850815779E-15
_HERTZ= 0.1519829846011223E-15
_HZ2006= 0.1519829850815779E-15
_HZ= 0.1519829846011223E-15
_TOA2006= 0.5291772490000000    
_TOA= 0.5291772090000000    
_TOANG2006= 0.5291772490000000    
_TOANG= 0.5291772090000000    
_TORAD= 0.1745329251994330E-01
_TOCM=  219474.6306700000    
_TODEBYE=  2.541580000000000    
_TOEV2006=  27.21139610000000    
_TOEV=  27.21138390000000    
_TOHERTZ2006=  6579683899900000.    
_TOHERTZ=  6579683920700000.    
_TOHZ2006=  6579683899900000.    
_TOHZ=  6579683920700000.    
_TOK2006=  315773.3000000000    
_TOK=  315774.7000000000    
_TOKCAL=  627.5096000000000    
_TOKELVIN2006=  315773.3000000000    
_TOKELVIN=  315774.7000000000    
_TOKJ=  2625.500000000000    
_TOKJOULE=  2625.500000000000    
_ANG2006=  1.889725988578923    
_ANG=  1.889726131421507    
_ANGSTROM2006=  1.889725988578923    
_ANGSTROM=  1.889726131421507    
_IGNORE_UNDEF=  2.000000000000000    
_STRICTCHECK=  0.000000000000000    
_SEW_ONEEL=  0.000000000000000    
_CPPDONE=FALSE
_DKROLL_DONE=  0.000000000000000    
_FOCKDONE=TRUE
_GRADONE=FALSE
_HESSDONE=TRUE
_INTDONE=TRUE
_SCFDONE=TRUE
_MODUL_CUDA=FALSE
_MODUL_SLATER=FALSE
_MODUL_MRCC=FALSE
_MRCC_EXEC=
_FITC_AO_SAVED=FALSE
_FITC_MO_SAVED=FALSE
_SHARED_FS=TRUE
_LSTYP=SEWARD
_INTYP=INTS
_GEOMTYP=ZMAT
_GRADTYP=ALASKA
_DIRECT=FALSE
_SYNCM=  0.000000000000000    
_DFTNAME=B3LYP
_DFTFUNC=B88
_BASIS=AUG-CC-PVDZ
_ZSYMEL=
_ZORIENT=  1.000000000000000    
_NELEC=  9.000000000000000    
!SPIN=  1.000000000000000    
_OPTCONV= 0.9761547053923090E-05
_QSDSTEP=  0.000000000000000    
_QSDIRC=  0.000000000000000    
_PROGRAM=FREQ
_CPUSTEP=  0.000000000000000    
_SYSSTEP=  0.000000000000000    
_WALLSTEP= 0.1000000000000000E-01
!DFSCF=  0.000000000000000    
!SCSGRD=  0.000000000000000    
_BASINP=  610.0000000000000    
_CPUTOT=  195.4400000000000    
_CPUSORT= 0.2899999999999920    
_SYSSORT= 0.1999999999999957E-01
_WALLSORT= 0.3799999998882413    
_DFTEXFAC= 0.2000000000000000    
_DFTFAC= 0.7200000000000000    
_DFTFUN= -5.207084247417394    
_DFTFUNS= -6.187367046145391    
_DMX= 0.1649013423402710E-03
_DMY=-0.2507130787698930E-12
_DMZ=-0.2019072891269796E-14
_FREQUENCIES= 0.7116618832691544E-04
_ENERGY= -39.81070266792576    
_ENUC=  9.601106151625174    
_FREQSTEP=  14.00000000000000    
_GRADENERG= -39.81070254214740    
_GRADEXFAC= 0.2000000000000000    
_GRADMETHOD=  2.000000000000000    
_VIRIAL= 0.1955181674198306E-04
_GRID=  1800.200000000000    
!GRID_FREEZE= -1.000000000000000    
_GRID_SPARSITY=  0.000000000000000    
_GRID_RMAX=  6.087459150490915    
_ITERATIONS=  2.000000000000000    
_LASTNELEC=  9.000000000000000    
_LASTSPIN=  1.000000000000000    
_LASTSYM=  1.000000000000000    
_MPP_PROG=  0.000000000000000    
_NGRID=  12528.00000000000    
_NPROC_MPP=  1.000000000000000    
_NPROC_SMP=  1.000000000000000    
_NUMSTEP=  0.000000000000000    
_OPTCONVMX= 0.8728083826755923E-05
_OPTCONVRMS= 0.3253849017974363E-05
_OPTGRAD= 0.1002738712790848E-04
_OPTGRADMX= 0.9584921459773437E-05
_OPTGRADRMS= 0.3342462375969494E-05
_OPTSTEP=  3.000000000000000    
_ORBITAL=  2101.200000000000    
_PI=  3.141592653589793    
_SEIG_MIN= 0.9585431926041596E-03
_SEWPROP=TRUE
_STATUS=  1.000000000000000    
_SYSTOT=  5.140000000000001    
_VERSION=  2010001.000000000    
_WALLTOT=  218.1400000000000    
_ZPE= 0.2958020903409966E-01
_DATE=17-Aug-24
_LASTORB=RKS
_MACHINE=Linux-3.10.0-1160.108.1.el7.x86_64/molmod(x86_64) 64 bit serial version
_OUTPUT=/home/ospite/Desktop/MMfP/Project6/CH3/molpro/DFT/ch3_aug-ccpVDZ.xml
_PGROUP=C1
_TIME=18:19:21
_LIBMOL=/usr/local/molpro/molpros_2010_1_Linux_x86_64_i8/lib/
!SURFREC=  0.000000000000000    
!POLYREC=  0.000000000000000    
!DIPREC=  0.000000000000000    
!VSCFREC=  0.000000000000000    
!VCIREC=  0.000000000000000    
!PVCIREC=  0.000000000000000    
!VMP2REC=  0.000000000000000    
!VMCSCFREC=  0.000000000000000    
!GAREC=  0.000000000000000    
!SCFORB=  21002.00000000000    
!NEWMOL=  0.000000000000000    
!NEWSYM=  0.000000000000000    
_SLFILES=slscratch
_NGSSTO=  9.000000000000000    
_SIN=SIN
_COS=COS
_TAN=TAN
_ACOS=ACOS
_ASIN=ASIN
_ATAN=ATAN
_COSH=COSH
_SINH=SINH
_TANH=TANH
_ABS=ABS
_MOD=MOD
_ERF=ERF
_REFC=REFC
_ERFC=ERFC
_HYPOT=HYPOT
_J0=J0
_J1=J1
_JN=JN
_GAMMA=GAMMA
_LGAMMA=LGAMMA
_Y0=Y0
_Y1=Y1
_YN=YN
_EXP=EXP
_LOG=LOG
_LOG10=LOG10
_SQRT=SQRT
_INT=INT
_NINT=NINT
_MAX=MAX
_MIN=MIN
_COSMO=  0.000000000000000    
_COSMOIT=  0.000000000000000    
_COSMOES=  0.000000000000000    
_COSMOEDS=  0.000000000000000    
_COSMOEC=  0.000000000000000    
_COSMOEDCORR=  0.000000000000000    
_FEPSI=  1.000000000000000    
_SL_IsMM=  0.000000000000000    
_SL_NSYM=  0.000000000000000    
_SL_System_BitSw=  0.000000000000000    
_SL_Unique_atoms=  0.000000000000000    
_SL_GRAD=  0.000000000000000    
_SL_MAXUPD_Hess=  5.000000000000000    
_SL_N_PRINT_COD=  5.000000000000000    
_SL_PRINT_CODES=  0.000000000000000    
_SL_BasType=  0.000000000000000    
_SL_Energy_Pred=  0.000000000000000    
_SL_New_Coords=  0.000000000000000    
_SL_Total_Nuclea=  0.000000000000000    
_SL_Highest_Mltp=  0.000000000000000    
_SL_Ref_Geom=  0.000000000000000    
!LATTICE= -1.000000000000000    
!NEWLATTICE=  0.000000000000000    
!LATGRAD_VAR=FALSE
!SEW_LATTICE=  1.000000000000000    
!LOCAL=  0.000000000000000    
!SAVEOCC=  0.000000000000000    
!SAVEDOM= -1.000000000000000    
!RESTDOM= -1.000000000000000    
!SAVEDOM_HF= -1.000000000000000    
!RESTDOM_HF= -1.000000000000000    
!HESSREC=  5300.200000000000    
!FREQREC=  5400.200000000000    
!NMODREC=  5450.200000000000    
!GTASKS=  0.000000000000000    
!HTASKS=  5500.200000000000    
!THRCHG= 0.1000000000000000    
!DEBUG= -1.000000000000000    
!CFIT_CPHF=  0.000000000000000    
!RDOMAUX_CPHF=  5.000000000000000    
!THRAO_CPHF= 0.9999999999999999E-11
!THRMO_CPHF= 0.9999999999999999E-11
!THROV_CPHF= 0.1000000000000000E-11
!THRSW_CPHF= 0.1000000000000000E-09
!THRPROD_CPHF= 0.9999999999999999E-11
!THRAOPR_CPHF= 0.1000000000000000E-11
!CFIT_SCFGRD=  0.000000000000000    
!RDOMAUX_SCFGRD=  7.000000000000000    
!THRAO_SCFGRD= 0.9999999999999999E-11
!THRMO_SCFGRD= 0.9999999999999999E-11
!THROV_SCFGRD= 0.1000000000000000E-11
!THRSW_SCFGRD= 0.1000000000000000E-09
!THRPROD_SCFGRD= 0.9999999999999999E-11
!THRAOPR_SCFGRD= 0.1000000000000000E-11
!LOCFIT_SCF=  0.000000000000000    
!LOCFIT_MP2= -1.000000000000000    
_RIDOM=  0.000000000000000    
!CC2_METHOD=  0.000000000000000    
_BASIS2006=FALSE
_SVDDEL= -1.000000000000000    
_SVDDELA= -1.000000000000000    
_SVDDELP= -1.000000000000000    
_SVDDELF= -1.000000000000000    
_SVDDELS= -1.000000000000000    
_SVDDEL_ABS= -1.000000000000000    
_SVDDELA_ABS= -1.000000000000000    
_SVDDELP_ABS= -1.000000000000000    
_SVDDELF_ABS= -1.000000000000000    
_SVDDELS_ABS= -1.000000000000000    
_MAXBASIS=  0.000000000000000    
!OPT_CONICAL=  0.000000000000000    
!CLEARSP_JGRID=  0.000000000000000    
D=  1.087557149330787    
A=  119.9768216741294    
T=  0.000000000000000    
GX1=-0.9655130881422447E-04
GY1= -0.000000000000000    
GZ1=  0.000000000000000    
GX2=  2.055088613195855    
GY2= -0.000000000000000    
GZ2=  0.000000000000000    
GX3= -1.026969035366421    
GY3= -1.780258116646416    
GZ3=  0.000000000000000    
GX4= -1.026969035366421    
GY4=  1.780258116646416    
GZ4=  0.000000000000000    
CX1=-0.9655130881422447E-04
CY1=  0.000000000000000    
CZ1=  0.000000000000000    
H1X2=  2.055088613195855    
H1Y2=  0.000000000000000    
H1Z2=  0.000000000000000    
H2X3= -1.026969035366421    
H2Y3= -1.780258116646416    
H2Z3=  0.000000000000000    
H3X4= -1.026969035366421    
H3Y4=  1.780258116646416    
H3Z4=  0.000000000000000    
[Atoms] Angs
C     1    6        -0.0000510928       -0.0000000000        0.0000000000
H     2    1         1.0875060566       -0.0000000000        0.0000000000
H     3    1        -0.5434486079       -0.9420720215        0.0000000000
H     4    1        -0.5434486079        0.9420720215        0.0000000000
[GTO]
  1 0
 s    9  1.00
  0.6665000000D+04  0.6920001793D-03
  0.1000000000D+04  0.5329001381D-02
  0.2280000000D+03  0.2707700701D-01
  0.6471000000D+02  0.1017180264D+00
  0.2106000000D+02  0.2747400712D+00
  0.7495000000D+01  0.4485641162D+00
  0.2797000000D+01  0.2850740738D+00
  0.5215000000D+00  0.1520400394D-01
  0.1596000000D+00 -0.3191000827D-02
 s    9  1.00
  0.6665000000D+04 -0.1460000642D-03
  0.1000000000D+04 -0.1154000508D-02
  0.2280000000D+03 -0.5725002519D-02
  0.6471000000D+02 -0.2331201026D-01
  0.2106000000D+02 -0.6395502813D-01
  0.7495000000D+01 -0.1499810660D+00
  0.2797000000D+01 -0.1272620560D+00
  0.5215000000D+00  0.5445292395D+00
  0.1596000000D+00  0.5804962554D+00
 s    9  1.00
  0.6665000000D+04  0.0000000000D+00
  0.1000000000D+04  0.0000000000D+00
  0.2280000000D+03  0.0000000000D+00
  0.6471000000D+02  0.0000000000D+00
  0.2106000000D+02  0.0000000000D+00
  0.7495000000D+01  0.0000000000D+00
  0.2797000000D+01  0.0000000000D+00
  0.5215000000D+00  0.0000000000D+00
  0.1596000000D+00  0.1000000000D+01
 s    1  1.00
  0.4690000000D-01  0.1000000000D+01
 p    4  1.00
  0.9439000000D+01  0.3810902127D-01
  0.2002000000D+01  0.2094801169D+00
  0.5456000000D+00  0.5085572839D+00
  0.1517000000D+00  0.4688422617D+00
 p    4  1.00
  0.9439000000D+01  0.0000000000D+00
  0.2002000000D+01  0.0000000000D+00
  0.5456000000D+00  0.0000000000D+00
  0.1517000000D+00  0.1000000000D+01
 p    1  1.00
  0.4041000000D-01  0.1000000000D+01
 d    1  1.00
  0.5500000000D+00  0.1000000000D+01
 d    1  1.00
  0.1510000000D+00  0.1000000000D+01
  
  2 0
 s    4  1.00
  0.1301000000D+02  0.1968498999D-01
  0.1962000000D+01  0.1379769298D+00
  0.4446000000D+00  0.4781477569D+00
  0.1220000000D+00  0.5012397451D+00
 s    4  1.00
  0.1301000000D+02  0.0000000000D+00
  0.1962000000D+01  0.0000000000D+00
  0.4446000000D+00  0.0000000000D+00
  0.1220000000D+00  0.1000000000D+01
 s    1  1.00
  0.2974000000D-01  0.1000000000D+01
 p    1  1.00
  0.7270000000D+00  0.1000000000D+01
 p    1  1.00
  0.1410000000D+00  0.1000000000D+01
  
  3 0
 s    4  1.00
  0.1301000000D+02  0.1968498999D-01
  0.1962000000D+01  0.1379769298D+00
  0.4446000000D+00  0.4781477569D+00
  0.1220000000D+00  0.5012397451D+00
 s    4  1.00
  0.1301000000D+02  0.0000000000D+00
  0.1962000000D+01  0.0000000000D+00
  0.4446000000D+00  0.0000000000D+00
  0.1220000000D+00  0.1000000000D+01
 s    1  1.00
  0.2974000000D-01  0.1000000000D+01
 p    1  1.00
  0.7270000000D+00  0.1000000000D+01
 p    1  1.00
  0.1410000000D+00  0.1000000000D+01
  
  4 0
 s    4  1.00
  0.1301000000D+02  0.1968498999D-01
  0.1962000000D+01  0.1379769298D+00
  0.4446000000D+00  0.4781477569D+00
  0.1220000000D+00  0.5012397451D+00
 s    4  1.00
  0.1301000000D+02  0.0000000000D+00
  0.1962000000D+01  0.0000000000D+00
  0.4446000000D+00  0.0000000000D+00
  0.1220000000D+00  0.1000000000D+01
 s    1  1.00
  0.2974000000D-01  0.1000000000D+01
 p    1  1.00
  0.7270000000D+00  0.1000000000D+01
 p    1  1.00
  0.1410000000D+00  0.1000000000D+01


[MO]
 Sym=      1.1
 Ene=     -10.1936
 Spin= Alpha
 Occup=    2.000000
1 1.00874839515164
2 0.043219568172206
3 -0.083685281956514
4 -0.018564308479621
5 0.000000869930321
6 0.000000000000000
7 0.000000000000000
8 -0.000003670094086
9 -0.000000000000008
10 -0.000000000000000
11 -0.000001952757387
12 0.000000000000004
13 -0.000000000000000
14 0.000973570300579
15 0.000977741639065
16 -0.001951311939644
17 -0.000000000000000
18 0.000000000000000
19 -0.000000000000000
20 -0.001742019625918
21 -0.001744406815714
22 0.003486426441632
23 0.000000000000002
24 -0.000000000000000
25 0.000000000000000
26 -0.001499442357588
27 0.021673693464165
28 0.002356747965419
29 0.002046399112502
30 0.000000000000000
31 -0.000000000000000
32 -0.006614944537444
33 -0.000000000000002
34 0.000000000000000
35 -0.001502478042264
36 0.021679781891787
37 0.002354687445866
38 -0.001023462545809
39 -0.001773128020768
40 -0.000000000000000
41 0.003305294574280
42 0.005732340170006
43 0.000000000000000
44 -0.001502478042263
45 0.021679781891810
46 0.002354687445857
47 -0.001023462545809
48 0.001773128020769
49 -0.000000000000000
50 0.003305294574283
51 -0.005732340170016
52 0.000000000000000
 Sym=      2.1
 Ene=      -0.6663
 Spin= Alpha
 Occup=    2.000000
1 -0.019454474238487
2 0.80079741309819
3 -0.26334803371071
4 -0.001750876241139
5 0.000138487592238
6 -0.000000000000058
7 0.000000000000000
8 -0.000954067656905
9 0.000000000000642
10 0.000000000000000
11 -0.000736114720805
12 0.000000000000233
13 0.000000000000000
14 0.000010785513061
15 -0.000007038302367
16 -0.000003747210694
17 -0.000000000000013
18 -0.000000000000000
19 -0.000000000000000
20 -0.005401977539449
21 -0.004919590051369
22 0.010321567590818
23 -0.000000000000095
24 -0.000000000000000
25 0.000000000000000
26 0.35161295770443
27 -0.12106440626398
28 0.003690795729776
29 -0.026367296919393
30 0.000000000000001
31 0.000000000000000
32 -0.013669948305499
33 -0.000000000000013
34 0.000000000000000
35 0.35144613914682
36 -0.12349377548407
37 0.002443805580899
38 0.013177736556945
39 0.022834672307053
40 -0.000000000000000
41 0.006462857954610
42 0.011287721615465
43 0.000000000000000
44 0.35144613914675
45 -0.12349377548567
46 0.002443805580423
47 0.013177736556946
48 -0.022834672307055
49 0.000000000000000
50 0.006462857954326
51 -0.011287721614965
52 -0.000000000000000
 Sym=      3.1
 Ene=      -0.4160
 Spin= Alpha
 Occup=    2.000000
1 -0.000000000000064
2 -0.000000000000271
3 0.000000000000926
4 0.000000000000063
5 -0.000000000090648
6 0.67650199178838
7 -0.000000000000001
8 0.000000000046524
9 -0.35041146199601
10 0.000000000000003
11 0.000000000002525
12 -0.021918505595075
13 -0.000000000000000
14 -0.000000000002382
15 0.000000000002389
16 -0.000000000000007
17 -0.020603017694149
18 -0.000000000000000
19 -0.000000000000000
20 0.000000000010799
21 -0.000000000010798
22 -0.000000000000001
23 0.094128822837544
24 -0.000000000000001
25 0.000000000000002
26 -0.000000000090103
27 -0.000000000017694
28 -0.000000000003307
29 0.000000000001637
30 0.013032218721254
31 0.000000000000001
32 0.000000000012266
33 -0.032164118560274
34 -0.000000000000000
35 -0.58227118841793
36 -0.11818535101261
37 -0.023787237714205
38 -0.010949762921864
39 -0.005894516440950
40 -0.000000000000000
41 -0.025730742413578
42 -0.077431176612365
43 0.000000000000001
44 0.58227118850798
45 0.11818535102967
46 0.023787237717541
47 0.010949762920059
48 -0.005894516443884
49 0.000000000000001
50 0.025730742425986
51 -0.077431176618953
52 -0.000000000000004
 Sym=      4.1
 Ene=      -0.4158
 Spin= Alpha
 Occup=    2.000000
1 0.000027147400897
2 -0.000075237667575
3 -0.000794946499958
4 0.000469030318477
5 0.67643959165686
6 0.000000000090681
7 0.000000000000000
8 -0.34833562094788
9 -0.000000000047033
10 0.000000000000001
11 -0.019562194356760
12 -0.000000000003023
13 0.000000000000001
14 0.017820556504975
15 -0.017836013188320
16 0.000015456683345
17 -0.000000000002754
18 0.000000000000000
19 -0.000000000000000
20 -0.080747122391216
21 0.080819823395226
22 -0.000072701004010
23 0.000000000012609
24 0.000000000000000
25 0.000000000000001
26 0.67222137898951
27 0.13244359277752
28 0.025561016018309
29 -0.012214143472871
30 0.000000000001747
31 0.000000000000000
32 -0.091404495280763
33 -0.000000000004290
34 -0.000000000000001
35 -0.33608876117443
36 -0.066017573142665
37 -0.012999841594785
38 0.006759652894564
39 -0.010941385150320
40 -0.000000000000000
41 -0.046810004458951
42 -0.025503320557952
43 0.000000000000001
44 -0.33608876101835
45 -0.066017573110816
46 -0.012999841588162
47 0.006759652897495
48 0.010941385148740
49 0.000000000000000
50 -0.046810004452003
51 0.025503320537152
52 -0.000000000000001
 Sym=      5.1
 Ene=      -0.2320
 Spin= Alpha
 Occup=    1.000000
1 0.000000000000001
2 0.000000000000001
3 -0.000000000000015
4 -0.000000000000005
5 -0.000000000000001
6 -0.000000000000000
7 0.91147374637702
8 -0.000000000000005
9 -0.000000000000006
10 0.000133925812032
11 -0.000000000000002
12 0.000000000000001
13 0.087376909133280
14 -0.000000000000000
15 -0.000000000000001
16 0.000000000000001
17 0.000000000000000
18 0.000090116969684
19 -0.000000000000009
20 -0.000000000000001
21 0.000000000000000
22 0.000000000000001
23 -0.000000000000000
24 -0.000883475997956
25 0.000000000000029
26 0.000000000000001
27 0.000000000000016
28 0.000000000000003
29 0.000000000000000
30 0.000000000000000
31 0.020440720679696
32 -0.000000000000006
33 0.000000000000000
34 0.019930029047886
35 -0.000000000000000
36 -0.000000000000007
37 0.000000000000001
38 -0.000000000000000
39 0.000000000000000
40 0.020492631547808
41 -0.000000000000002
42 -0.000000000000002
43 0.018299881806349
44 0.000000000000002
45 0.000000000000006
46 -0.000000000000003
47 0.000000000000000
48 -0.000000000000000
49 0.020492631547837
50 0.000000000000001
51 -0.000000000000003
52 0.018299881806304
 Sym=      6.1
 Ene=      -0.0033
 Spin= Alpha
 Occup=    0.000000
1 0.004693194141423
2 -0.28214486045753
3 -0.58683928157446
4 -1.68940925549674
5 0.008940118946841
6 0.000000000000049
7 0.000000000000002
8 -0.082126029507923
9 -0.000000000002062
10 -0.000000000000001
11 -0.10892875557146
12 -0.000000000001423
13 -0.000000000000005
14 0.003554604146523
15 0.003240980958567
16 -0.006795585105090
17 0.000000000000021
18 -0.000000000000000
19 0.000000000000000
20 -0.039926472271572
21 -0.005331228884997
22 0.045257701156569
23 0.000000000000338
24 -0.000000000000000
25 0.000000000000001
26 0.034446598440391
27 0.53374206709552
28 0.83764817336885
29 0.009490603043396
30 -0.000000000000000
31 -0.000000000000000
32 -0.074601720157531
33 0.000000000000032
34 0.000000000000002
35 0.021063483990102
36 0.29882216859920
37 0.72795886510408
38 -0.005817436679014
39 -0.009616245091535
40 -0.000000000000000
41 0.007839798066405
42 0.015791349460929
43 0.000000000000002
44 0.021063483990335
45 0.29882216860510
46 0.72795886510710
47 -0.005817436679000
48 0.009616245091509
49 0.000000000000000
50 0.007839798067395
51 -0.015791349462505
52 -0.000000000000000
 Sym=      7.1
 Ene=       0.0306
 Spin= Alpha
 Occup=    0.000000
1 -0.000708039751212
2 -0.015354844394322
3 0.009273889109606
4 0.004805311057051
5 -0.21885596775984
6 -0.000000000003199
7 -0.000000000000004
8 -0.15648114928694
9 -0.000000000008794
10 0.000000000000001
11 -1.00906791050293
12 -0.000000000023533
13 0.000000000000011
14 -0.004409969041771
15 0.004978351727950
16 -0.000568382686180
17 0.000000000000126
18 -0.000000000000000
19 -0.000000000000000
20 0.058480186228830
21 -0.059777151399882
22 0.001296965171052
23 -0.000000000000312
24 -0.000000000000001
25 0.000000000000001
26 -0.063053273418222
27 0.23255602695162
28 3.65358521886935
29 0.009737121768770
30 -0.000000000000075
31 0.000000000000000
32 -0.027760102155098
33 0.000000000002348
34 -0.000000000000001
35 0.033503378383839
36 -0.11825776964237
37 -1.81251376837413
38 -0.001106999277866
39 0.005326999138938
40 0.000000000000000
41 0.078986757101079
42 -0.071723673031628
43 -0.000000000000001
44 0.033503378382863
45 -0.11825776961735
46 -1.81251376825668
47 -0.001106999278008
48 -0.005326999138848
49 0.000000000000000
50 0.078986757106399
51 0.071723673027216
52 -0.000000000000003
 Sym=      8.1
 Ene=       0.0330
 Spin= Alpha
 Occup=    0.000000
1 0.000000000000121
2 0.000000000000102
3 -0.000000000002857
4 0.000000000000735
5 -0.000000000003848
6 0.21887364248397
7 0.000000000000001
8 0.000000000007446
9 0.18561588113909
10 -0.000000000000003
11 -0.000000000007753
12 1.14297410331628
13 0.000000000000000
14 -0.000000000000029
15 -0.000000000000003
16 0.000000000000033
17 -0.005579836718812
18 0.000000000000000
19 0.000000000000000
20 0.000000000002049
21 -0.000000000002078
22 0.000000000000029
23 0.069056386258246
24 -0.000000000000000
25 -0.000000000000002
26 -0.000000000001441
27 -0.000000000012334
28 0.000000000046929
29 0.000000000000201
30 0.004841736023622
31 -0.000000000000000
32 0.000000000004679
33 -0.13192863033421
34 0.000000000000002
35 -0.051990971557438
36 0.25103433681963
37 3.31152971166821
38 -0.005767484297788
39 -0.004769327989110
40 0.000000000000000
41 0.073403396203642
42 -0.010544971231629
43 -0.000000000000002
44 0.051990971559498
45 -0.25103433680543
46 -3.31152971171528
47 0.005767484297784
48 -0.004769327989371
49 -0.000000000000000
50 -0.073403396198543
51 -0.010544971235183
52 0.000000000000002
 Sym=      9.1
 Ene=       0.0700
 Spin= Alpha
 Occup=    0.000000
1 -0.000000000000002
2 -0.000000000000012
3 0.000000000000054
4 0.000000000000108
5 0.000000000000003
6 0.000000000000001
7 -0.37621370394488
8 0.000000000000008
9 0.000000000000017
10 -0.033673069879049
11 0.000000000000004
12 0.000000000000044
13 1.19136994564383
14 -0.000000000000000
15 0.000000000000000
16 -0.000000000000000
17 0.000000000000000
18 0.000779721459826
19 0.000000000000001
20 0.000000000000005
21 -0.000000000000001
22 -0.000000000000004
23 -0.000000000000004
24 -0.009616390236708
25 0.000000000000053
26 0.000000000000000
27 -0.000000000000050
28 -0.000000000000041
29 0.000000000000000
30 0.000000000000000
31 0.003512249774491
32 0.000000000000013
33 0.000000000000002
34 -0.077906171850878
35 0.000000000000003
36 0.000000000000011
37 0.000000000000041
38 -0.000000000000000
39 -0.000000000000000
40 0.004025835294785
41 0.000000000000000
42 -0.000000000000000
43 -0.099877202664051
44 -0.000000000000004
45 -0.000000000000055
46 -0.000000000000064
47 -0.000000000000000
48 0.000000000000001
49 0.004025835294783
50 -0.000000000000006
51 0.000000000000016
52 -0.099877202664271
 Sym=     10.1
 Ene=       0.0944
 Spin= Alpha
 Occup=    0.000000
1 -0.000278165695405
2 0.019570242647949
3 0.028148826358352
4 0.11171002917357
5 0.10022621331327
6 0.000000000002368
7 -0.000000000000001
8 -1.32013182257155
9 -0.000000000026270
10 0.000000000000003
11 -3.87493855148097
12 -0.000000000056943
13 -0.000000000000001
14 0.020926643140192
15 -0.022733007610477
16 0.001806364470285
17 -0.000000000000254
18 0.000000000000000
19 -0.000000000000000
20 -0.31335875701689
21 0.32259028251375
22 -0.009231525496857
23 0.000000000005668
24 -0.000000000000001
25 0.000000000000003
26 0.23617947770323
27 2.79903087968618
28 5.43554532449234
29 -0.013519003927048
30 -0.000000000000180
31 -0.000000000000001
32 -0.58201343916853
33 -0.000000000001236
34 0.000000000000001
35 -0.12726542781723
36 -1.46680409525472
37 -2.75250760509977
38 -0.015586174450598
39 0.001719403334088
40 -0.000000000000000
41 -0.23361091141372
42 -0.18641585909706
43 0.000000000000002
44 -0.12726542781067
45 -1.46680409516505
46 -2.75250760496758
47 -0.015586174450542
48 -0.001719403334544
49 0.000000000000000
50 -0.23361091140351
51 0.18641585907672
52 -0.000000000000004
 Sym=     11.1
 Ene=       0.1043
 Spin= Alpha
 Occup=    0.000000
1 0.000000000000290
2 0.000000000003192
3 -0.000000000009595
4 -0.000000000050286
5 -0.000000000000654
6 0.10195446569985
7 -0.000000000000005
8 0.000000000005131
9 -1.23009586775020
10 0.000000000000003
11 0.000000000050029
12 -3.71168302863690
13 0.000000000000016
14 -0.000000000000473
15 0.000000000000555
16 -0.000000000000082
17 -0.027051268932128
18 -0.000000000000001
19 -0.000000000000000
20 0.000000000002872
21 -0.000000000004730
22 0.000000000001858
23 0.34555780011879
24 0.000000000000002
25 0.000000000000002
26 -0.000000000003613
27 -0.000000000009358
28 -0.000000000062074
29 -0.000000000000066
30 -0.016137466994542
31 0.000000000000000
32 -0.000000000002219
33 -0.16271629852055
34 -0.000000000000006
35 -0.21987209517795
36 -2.32667847691728
37 -4.48294850258462
38 0.001646246492135
39 -0.013450970992077
40 0.000000000000000
41 -0.16403832044328
42 -0.44525341541385
43 0.000000000000001
44 0.21987209518024
45 2.32667847695758
46 4.48294850267999
47 -0.001646246491491
48 -0.013450970992129
49 -0.000000000000000
50 0.16403832045065
51 -0.44525341541446
52 -0.000000000000004
 Sym=     12.1
 Ene=       0.1137
 Spin= Alpha
 Occup=    0.000000
1 0.073856193986191
2 0.64491476689114
3 -1.96340339045617
4 -6.78842964929112
5 -0.004059873554783
6 -0.000000000000670
7 -0.000000000000005
8 -0.008650788744992
9 -0.000000000000972
10 -0.000000000000005
11 0.014473312681643
12 0.000000000022524
13 0.000000000000015
14 -0.004379152038896
15 -0.001910403156769
16 0.006289555195665
17 0.000000000000264
18 -0.000000000000000
19 -0.000000000000000
20 -0.10581251528159
21 -0.13024942965044
22 0.23606194493203
23 -0.000000000000736
24 -0.000000000000001
25 0.000000000000003
26 -0.066953747218129
27 1.40857775373924
28 1.55260323849445
29 -0.024359789155175
30 0.000000000000135
31 -0.000000000000000
32 -0.45868472568710
33 0.000000000001102
34 0.000000000000003
35 -0.061398968783034
36 1.42237762565181
37 1.55978671906390
38 0.011985847007421
39 0.020530124206623
40 -0.000000000000000
41 0.24244410747864
42 0.39012197833679
43 0.000000000000002
44 -0.061398968785175
45 1.42237762564720
46 1.55978671900566
47 0.011985847007501
48 -0.020530124206523
49 -0.000000000000000
50 0.24244410748095
51 -0.39012197833825
52 -0.000000000000002
 Sym=     13.1
 Ene=       0.1684
 Spin= Alpha
 Occup=    0.000000
1 -0.002601084297786
2 0.017828083847815
3 0.080558390549004
4 0.37082612966174
5 -0.52559613525747
6 -0.000000000045456
7 -0.000000000000001
8 0.26031546089992
9 0.000000000029436
10 -0.000000000000000
11 1.75658809933084
12 0.000000000155475
13 0.000000000000005
14 0.051875326813071
15 -0.055440019180710
16 0.003564692367640
17 -0.000000000005399
18 0.000000000000000
19 0.000000000000000
20 -0.33069879917920
21 0.32206236891803
22 0.008636430261166
23 0.000000000031914
24 0.000000000000002
25 -0.000000000000002
26 0.20996334717333
27 0.28075523984462
28 -3.58516786077396
29 0.029403021712377
30 -0.000000000001623
31 0.000000000000000
32 0.50567760177448
33 -0.000000000060316
34 -0.000000000000002
35 -0.14661688058480
36 -0.31523972571418
37 1.71788214859953
38 -0.007013517953761
39 0.019828140308982
40 -0.000000000000000
41 -0.38926052126079
42 0.53921232396697
43 -0.000000000000006
44 -0.14661688055023
45 -0.31523972567435
46 1.71788214806399
47 -0.007013517957300
48 -0.019828140305983
49 0.000000000000000
50 -0.38926052135624
51 -0.53921232392480
52 0.000000000000004
 Sym=     14.1
 Ene=       0.1687
 Spin= Alpha
 Occup=    0.000000
1 0.000000000000611
2 -0.000000000002235
3 -0.000000000018052
4 -0.000000000058365
5 0.000000000044776
6 -0.53035822185436
7 0.000000000000000
8 -0.000000000012299
9 0.24909358411539
10 -0.000000000000003
11 -0.000000000150366
12 1.82483008349238
13 0.000000000000001
14 -0.000000000004204
15 0.000000000004705
16 -0.000000000000501
17 -0.061501261521375
18 -0.000000000000000
19 0.000000000000000
20 0.000000000029383
21 -0.000000000028116
22 -0.000000000001267
23 0.38257564340739
24 -0.000000000000003
25 -0.000000000000003
26 -0.000000000015851
27 -0.000000000029554
28 0.000000000312070
29 -0.000000000002540
30 -0.018335797739564
31 0.000000000000000
32 -0.000000000037039
33 -0.69644636416122
34 0.000000000000002
35 -0.20191792024116
36 -0.36038426711229
37 3.15625096155597
38 0.020208120663471
39 0.017418933458218
40 0.000000000000000
41 0.52927040506505
42 0.20473862140689
43 -0.000000000000002
44 0.20191792027044
45 0.36038426720143
46 -3.15625096184491
47 -0.020208120662276
48 0.017418933461397
49 0.000000000000000
50 -0.52927040499685
51 0.20473862149326
52 0.000000000000002
 Sym=     15.1
 Ene=       0.1703
 Spin= Alpha
 Occup=    0.000000
1 -0.028493290417302
2 0.18653143003430
3 0.89069540567367
4 4.00976559709731
5 0.046565163107346
6 -0.000000000003488
7 0.000000000000000
8 -0.026278036300269
9 0.000000000010658
10 0.000000000000004
11 -0.095761060776788
12 0.000000000012509
13 -0.000000000000002
14 -0.024172842993646
15 -0.013768461191473
16 0.037941304185119
17 -0.000000000000508
18 0.000000000000000
19 0.000000000000000
20 -0.030947780562753
21 -0.072084609782913
22 0.10303239034567
23 0.000000000001015
24 0.000000000000001
25 -0.000000000000001
26 -0.32745969996976
27 -1.28609630383822
28 -0.31614098738144
29 0.005203207113232
30 -0.000000000000162
31 0.000000000000000
32 -0.18525675699165
33 -0.000000000004655
34 -0.000000000000002
35 -0.28646036966854
36 -1.24115208150101
37 -0.65547673636412
38 -0.002723715448275
39 -0.008371255149888
40 -0.000000000000000
41 0.099049176577451
42 0.066642696527012
43 -0.000000000000003
44 -0.28646036966624
45 -1.24115208152206
46 -0.65547673640391
47 -0.002723715448609
48 0.008371255150150
49 0.000000000000000
50 0.099049176565821
51 -0.066642696516436
52 -0.000000000000001
 Sym=     16.1
 Ene=       0.2515
 Spin= Alpha
 Occup=    0.000000
1 0.000000000000001
2 0.000000000000002
3 -0.000000000000020
4 -0.000000000000015
5 0.000000000000001
6 -0.000000000000001
7 0.002739167568524
8 0.000000000000003
9 0.000000000000024
10 -0.012112138764565
11 0.000000000000001
12 0.000000000000013
13 -0.009138084103873
14 0.000000000000000
15 -0.000000000000000
16 0.000000000000000
17 -0.000000000000001
18 0.048135928847630
19 -0.000000000000101
20 0.000000000000001
21 -0.000000000000002
22 0.000000000000001
23 -0.000000000000002
24 -0.020978441067543
25 0.000000000000006
26 0.000000000000001
27 0.000000000000003
28 0.000000000000005
29 -0.000000000000000
30 -0.000000000000000
31 -0.001226440991144
32 -0.000000000000003
33 -0.000000000000004
34 1.07060953725390
35 -0.000000000000000
36 0.000000000000044
37 0.000000000000009
38 0.000000000000000
39 0.000000000000000
40 0.000547175612312
41 0.000000000000010
42 0.000000000000007
43 -0.52539920051854
44 0.000000000000002
45 -0.000000000000018
46 -0.000000000000008
47 -0.000000000000000