[Molden Format]
[Molpro variables]
_NUMVAR=  687.0000000000000    
_EV2006= 0.3674930886769165E-01
_EV= 0.3674932534394180E-01
_KJOULE= 0.3808798324128737E-03
_KJOULE/MOL= 0.3808798324128737E-03
_CM= 0.4556335267302901E-05
_CM-1= 0.4556335267302901E-05
_KCAL= 0.1593601117815568E-02
_KCAL/MOL= 0.1593601117815568E-02
_KELVIN2006= 0.3166828861084835E-05
_KELVIN= 0.3166814820820034E-05
_HERTZ2006= 0.1519829850815779E-15
_HERTZ= 0.1519829846011223E-15
_HZ2006= 0.1519829850815779E-15
_HZ= 0.1519829846011223E-15
_TOA2006= 0.5291772490000000    
_TOA= 0.5291772090000000    
_TOANG2006= 0.5291772490000000    
_TOANG= 0.5291772090000000    
_TORAD= 0.1745329251994330E-01
_TOCM=  219474.6306700000    
_TODEBYE=  2.541580000000000    
_TOEV2006=  27.21139610000000    
_TOEV=  27.21138390000000    
_TOHERTZ2006=  6579683899900000.    
_TOHERTZ=  6579683920700000.    
_TOHZ2006=  6579683899900000.    
_TOHZ=  6579683920700000.    
_TOK2006=  315773.3000000000    
_TOK=  315774.7000000000    
_TOKCAL=  627.5096000000000    
_TOKELVIN2006=  315773.3000000000    
_TOKELVIN=  315774.7000000000    
_TOKJ=  2625.500000000000    
_TOKJOULE=  2625.500000000000    
_ANG2006=  1.889725988578923    
_ANG=  1.889726131421507    
_ANGSTROM2006=  1.889725988578923    
_ANGSTROM=  1.889726131421507    
_IGNORE_UNDEF=  2.000000000000000    
_STRICTCHECK=  0.000000000000000    
_SEW_ONEEL=  0.000000000000000    
_CPPDONE=FALSE
_DKROLL_DONE=  0.000000000000000    
_FOCKDONE=TRUE
_GRADONE=FALSE
_HESSDONE=TRUE
_INTDONE=TRUE
_SCFDONE=TRUE
_MODUL_CUDA=FALSE
_MODUL_SLATER=FALSE
_MODUL_MRCC=FALSE
_MRCC_EXEC=
_FITC_AO_SAVED=FALSE
_FITC_MO_SAVED=FALSE
_SHARED_FS=TRUE
_LSTYP=SEWARD
_INTYP=INTS
_GEOMTYP=ZMAT
_GRADTYP=ALASKA
_DIRECT=FALSE
_SYNCM=  0.000000000000000    
_DFTNAME=B3LYP
_DFTFUNC=B88
_BASIS=STO-3G
_ZSYMEL=
_ZORIENT=  1.000000000000000    
_NELEC=  9.000000000000000    
!SPIN=  1.000000000000000    
_OPTCONV= 0.5252963908021992E-06
_QSDSTEP=  0.000000000000000    
_QSDIRC=  0.000000000000000    
_PROGRAM=FREQ
_CPUSTEP=  0.000000000000000    
_SYSSTEP=  0.000000000000000    
_WALLSTEP=  0.000000000000000    
!DFSCF=  0.000000000000000    
!SCSGRD=  0.000000000000000    
_BASINP=  610.0000000000000    
_CPUTOT=  49.82000000000000    
_CPUSORT= 0.3000000000000114E-01
_SYSSORT= 0.1000000000000023E-01
_WALLSORT= 0.7000000029802322E-01
_DFTEXFAC= 0.2000000000000000    
_DFTFAC= 0.7200000000000000    
_DFTFUN= -5.254725770408696    
_DFTFUNS= -6.245989614245908    
_DMX=-0.1354872803394080E-05
_DMY=-0.8082423619271140E-13
_DMZ=-0.4591302827591253E-15
_FREQUENCIES= -312.2251752215896    
_ENERGY= -39.31043660531609    
_ENUC=  9.567808819591320    
_FREQSTEP=  14.00000000000000    
_GRADENERG= -39.31043665560190    
_GRADEXFAC= 0.2000000000000000    
_GRADMETHOD=  2.000000000000000    
_VIRIAL= 0.2088286359409387E-04
_GRID=  1800.200000000000    
!GRID_FREEZE= -1.000000000000000    
_GRID_SPARSITY= 0.1288659793814428E-02
_GRID_RMAX=  6.270796138119466    
_ITERATIONS=  2.000000000000000    
_LASTNELEC=  9.000000000000000    
_LASTSPIN=  1.000000000000000    
_LASTSYM=  1.000000000000000    
_MPP_PROG=  0.000000000000000    
_NGRID=  12452.00000000000    
_NPROC_MPP=  1.000000000000000    
_NPROC_SMP=  1.000000000000000    
_NUMSTEP=  0.000000000000000    
_OPTCONVMX= 0.4776314167489067E-06
_OPTCONVRMS= 0.1750987969340664E-06
_OPTGRAD= 0.6257705233977506E-06
_OPTGRADMX= 0.6079073909771868E-06
_OPTGRADRMS= 0.2085901744659169E-06
_OPTSTEP=  3.000000000000000    
_ORBITAL=  2101.200000000000    
_PI=  3.141592653589793    
_SEIG_MIN= 0.2613579504649855    
_SEWPROP=TRUE
_STATUS=  1.000000000000000    
_SYSTOT=  2.860000000000000    
_VERSION=  2010001.000000000    
_WALLTOT=  70.00000000000000    
_ZPE= 0.3106519573393314E-01
_DATE=17-Aug-24
_LASTORB=RKS
_MACHINE=Linux-3.10.0-1160.108.1.el7.x86_64/molmod(x86_64) 64 bit serial version
_OUTPUT=/home/ospite/Desktop/MMfP/Project6/CH3/molpro/DFT/ch3_sto-3g.xml
_PGROUP=C1
_TIME=18:27:57
_LIBMOL=/usr/local/molpro/molpros_2010_1_Linux_x86_64_i8/lib/
!SURFREC=  0.000000000000000    
!POLYREC=  0.000000000000000    
!DIPREC=  0.000000000000000    
!VSCFREC=  0.000000000000000    
!VCIREC=  0.000000000000000    
!PVCIREC=  0.000000000000000    
!VMP2REC=  0.000000000000000    
!VMCSCFREC=  0.000000000000000    
!GAREC=  0.000000000000000    
!SCFORB=  21002.00000000000    
!NEWMOL=  0.000000000000000    
!NEWSYM=  0.000000000000000    
_SLFILES=slscratch
_NGSSTO=  9.000000000000000    
_SIN=SIN
_COS=COS
_TAN=TAN
_ACOS=ACOS
_ASIN=ASIN
_ATAN=ATAN
_COSH=COSH
_SINH=SINH
_TANH=TANH
_ABS=ABS
_MOD=MOD
_ERF=ERF
_REFC=REFC
_ERFC=ERFC
_HYPOT=HYPOT
_J0=J0
_J1=J1
_JN=JN
_GAMMA=GAMMA
_LGAMMA=LGAMMA
_Y0=Y0
_Y1=Y1
_YN=YN
_EXP=EXP
_LOG=LOG
_LOG10=LOG10
_SQRT=SQRT
_INT=INT
_NINT=NINT
_MAX=MAX
_MIN=MIN
_COSMO=  0.000000000000000    
_COSMOIT=  0.000000000000000    
_COSMOES=  0.000000000000000    
_COSMOEDS=  0.000000000000000    
_COSMOEC=  0.000000000000000    
_COSMOEDCORR=  0.000000000000000    
_FEPSI=  1.000000000000000    
_SL_IsMM=  0.000000000000000    
_SL_NSYM=  0.000000000000000    
_SL_System_BitSw=  0.000000000000000    
_SL_Unique_atoms=  0.000000000000000    
_SL_GRAD=  0.000000000000000    
_SL_MAXUPD_Hess=  5.000000000000000    
_SL_N_PRINT_COD=  5.000000000000000    
_SL_PRINT_CODES=  0.000000000000000    
_SL_BasType=  0.000000000000000    
_SL_Energy_Pred=  0.000000000000000    
_SL_New_Coords=  0.000000000000000    
_SL_Total_Nuclea=  0.000000000000000    
_SL_Highest_Mltp=  0.000000000000000    
_SL_Ref_Geom=  0.000000000000000    
!LATTICE= -1.000000000000000    
!NEWLATTICE=  0.000000000000000    
!LATGRAD_VAR=FALSE
!SEW_LATTICE=  1.000000000000000    
!LOCAL=  0.000000000000000    
!SAVEOCC=  0.000000000000000    
!SAVEDOM= -1.000000000000000    
!RESTDOM= -1.000000000000000    
!SAVEDOM_HF= -1.000000000000000    
!RESTDOM_HF= -1.000000000000000    
!HESSREC=  5300.200000000000    
!FREQREC=  5400.200000000000    
!NMODREC=  5450.200000000000    
!GTASKS=  0.000000000000000    
!HTASKS=  5500.200000000000    
!THRCHG= 0.1000000000000000    
!DEBUG= -1.000000000000000    
!CFIT_CPHF=  0.000000000000000    
!RDOMAUX_CPHF=  5.000000000000000    
!THRAO_CPHF= 0.9999999999999999E-11
!THRMO_CPHF= 0.9999999999999999E-11
!THROV_CPHF= 0.1000000000000000E-11
!THRSW_CPHF= 0.1000000000000000E-09
!THRPROD_CPHF= 0.9999999999999999E-11
!THRAOPR_CPHF= 0.1000000000000000E-11
!CFIT_SCFGRD=  0.000000000000000    
!RDOMAUX_SCFGRD=  7.000000000000000    
!THRAO_SCFGRD= 0.9999999999999999E-11
!THRMO_SCFGRD= 0.9999999999999999E-11
!THROV_SCFGRD= 0.1000000000000000E-11
!THRSW_SCFGRD= 0.1000000000000000E-09
!THRPROD_SCFGRD= 0.9999999999999999E-11
!THRAOPR_SCFGRD= 0.1000000000000000E-11
!LOCFIT_SCF=  0.000000000000000    
!LOCFIT_MP2= -1.000000000000000    
_RIDOM=  0.000000000000000    
!CC2_METHOD=  0.000000000000000    
_BASIS2006=FALSE
_SVDDEL= -1.000000000000000    
_SVDDELA= -1.000000000000000    
_SVDDELP= -1.000000000000000    
_SVDDELF= -1.000000000000000    
_SVDDELS= -1.000000000000000    
_SVDDEL_ABS= -1.000000000000000    
_SVDDELA_ABS= -1.000000000000000    
_SVDDELP_ABS= -1.000000000000000    
_SVDDELF_ABS= -1.000000000000000    
_SVDDELS_ABS= -1.000000000000000    
_MAXBASIS=  0.000000000000000    
!OPT_CONICAL=  0.000000000000000    
!CLEARSP_JGRID=  0.000000000000000    
D=  1.091341996058238    
A=  119.9972481952841    
T=  0.000000000000000    
GX1=-0.1150158809858082E-04
GY1= -0.000000000000000    
GZ1=  0.000000000000000    
GX2=  2.062325986680861    
GY2= -0.000000000000000    
GZ2=  0.000000000000000    
GX3= -1.031094464670741    
GY3= -1.786086178984720    
GZ3=  0.000000000000000    
GX4= -1.031094464670742    
GY4=  1.786086178984720    
GZ4=  0.000000000000000    
CX1=-0.1150158809858082E-04
CY1=  0.000000000000000    
CZ1=  0.000000000000000    
H1X2=  2.062325986680861    
H1Y2=  0.000000000000000    
H1Z2=  0.000000000000000    
H2X3= -1.031094464670741    
H2Y3= -1.786086178984720    
H2Z3=  0.000000000000000    
H3X4= -1.031094464670741    
H3Y4=  1.786086178984720    
H3Z4=  0.000000000000000    
[Atoms] Angs
C     1    6        -0.0000060864       -0.0000000000        0.0000000000
H     2    1         1.0913359097       -0.0000000000        0.0000000000
H     3    1        -0.5456316910       -0.9451560992        0.0000000000
H     4    1        -0.5456316910        0.9451560992        0.0000000000
[GTO]
  1 0
 s    3  1.00
  0.7161683700D+02  0.1543289700D+00
  0.1304509600D+02  0.5353281400D+00
  0.3530512200D+01  0.4446345400D+00
 s    3  1.00
  0.2941249400D+01 -0.9996723008D-01
  0.6834831000D+00  0.3995128303D+00
  0.2222899000D+00  0.7001154705D+00
 p    3  1.00
  0.2941249400D+01  0.1559162721D+00
  0.6834831000D+00  0.6076837282D+00
  0.2222899000D+00  0.3919573953D+00
  
  2 0
 s    3  1.00
  0.3425250900D+01  0.1543289707D+00
  0.6239137300D+00  0.5353281424D+00
  0.1688554000D+00  0.4446345420D+00
  
  3 0
 s    3  1.00
  0.3425250900D+01  0.1543289707D+00
  0.6239137300D+00  0.5353281424D+00
  0.1688554000D+00  0.4446345420D+00
  
  4 0
 s    3  1.00
  0.3425250900D+01  0.1543289707D+00
  0.6239137300D+00  0.5353281424D+00
  0.1688554000D+00  0.4446345420D+00


[MO]
 Sym=      1.1
 Ene=      -9.9577
 Spin= Alpha
 Occup=    2.000000
1 0.99092085310132
2 0.041538985516876
3 0.000000452041939
4 0.000000000000004
5 0.000000000000000
6 -0.008969115448527
7 -0.008968956775847
8 -0.008968956775850
 Sym=      2.1
 Ene=      -0.6129
 Spin= Alpha
 Occup=    2.000000
1 -0.22641880917655
2 0.65508606811484
3 0.000010327173170
4 -0.000000000000007
5 0.000000000000000
6 0.22045027907649
7 0.22044882594490
8 0.22044882594490
 Sym=      3.1
 Ene=      -0.3671
 Spin= Alpha
 Occup=    2.000000
1 -0.000000000000001
2 -0.000000000000006
3 0.000000000185808
4 0.55321988128728
5 0.000000000000000
6 0.000000000165455
7 -0.42665748225750
8 0.42665748209206
 Sym=      4.1
 Ene=      -0.3670
 Spin= Alpha
 Occup=    2.000000
1 0.000005243511188
2 -0.000019841467936
3 0.55322855264820
4 -0.000000000185776
5 -0.000000000000000
6 0.49266944267763
7 -0.24633345628398
8 -0.24633345657059
 Sym=      5.1
 Ene=      -0.1567
 Spin= Alpha
 Occup=    1.000000
1 0.000000000000000
2 -0.000000000000000
3 0.000000000000000
4 -0.000000000000000
5 1.00000000000000
6 -0.000000000000000
7 -0.000000000000000
8 0.000000000000000
 Sym=      8.1
 Ene=       0.3918
 Spin= Alpha
 Occup=    0.000000
1 0.23332609253822
2 -1.42205948947662
3 0.000133196559635
4 -0.000000000000027
5 0.000000000000000
6 0.74414370734325
7 0.74436156874707
8 0.74436156874711
 Sym=      7.1
 Ene=       0.5007
 Spin= Alpha
 Occup=    0.000000
1 0.000032762547843
2 -0.000206775937425
3 -1.14444322344102
4 -0.000000000786174
5 0.000000000000000
6 1.00674932135347
7 -0.50320395777282
8 -0.50320395657510
 Sym=      6.1
 Ene=       0.5007
 Spin= Alpha
 Occup=    0.000000
1 0.000000000000024
2 -0.000000000000172
3 -0.000000000786160
4 1.14448359225101
5 0.000000000000000
6 0.000000000691574
7 0.87178760318057
8 -0.87178760387186
 [FREQ]
    312.23
      0.00
      0.00
      0.00
      0.00
      0.00
      0.00
   1546.87
   1546.96
   3331.27
   3605.36
   3605.58
 [FR-COORD]
C         -0.0000115016       -0.0000000000        0.0000000000
H          2.0623259867       -0.0000000000        0.0000000000
H         -1.0310944647       -1.7860861790        0.0000000000
H         -1.0310944647        1.7860861790        0.0000000000
 [FR-NORM-COORD]
 Vibration                    1
          0.00000000         -0.00000000         -0.12940149
          0.00000000          0.00000000          0.51397076
          0.00000000         -0.00000000          0.51401352
          0.00000000         -0.00000000          0.51401352
 Vibration                    2
          0.23968134         -0.07515096         -0.05613242
          0.23968134         -0.10971805         -0.03997198
          0.20974453         -0.05786884         -0.06452484
          0.26961816         -0.05786884         -0.06389910
 Vibration                    3
         -0.00693047          0.02292453         -0.12345358
         -0.00693047          0.52431825         -0.16031243
          0.42730127         -0.22775148         -0.10606547
         -0.44116222         -0.22775148         -0.10398592
 Vibration                    4
          0.07990998          0.10140555          0.17502593
          0.07990998          0.28842395         -0.08094452
          0.24187716          0.00790413          0.09887179
         -0.08205719          0.00790413          0.50712924
 Vibration                    5
          0.02484758          0.03266797          0.05278348
          0.02484758          0.08999352         -0.01539493
          0.07449434          0.00400758          0.76088971
         -0.02479918          0.00400758         -0.58715000
 Vibration                    6
          0.04115290          0.15708673         -0.01316339
          0.04115290          0.13120561          0.61614611
          0.01873858          0.17002621         -0.33716359
          0.06356723          0.17002621         -0.31842035
 Vibration                    7
         -0.01790317         -0.15592481          0.12052877
         -0.01790317          0.04202727          0.56056553
          0.15353311         -0.25489262         -0.10045517
         -0.18933946         -0.25489262         -0.09848745
 Vibration                    8
         -0.00000000         -0.08695595          0.00000000
         -0.00000000          0.77127989         -0.00000000
         -0.36881881          0.13246028         -0.00000000
          0.36881881          0.13246028         -0.00000000
 Vibration                    9
         -0.08696107          0.00000000          0.00000000
         -0.08046223         -0.00000000          0.00000000
          0.55836186         -0.36878045          0.00000000
          0.55836186          0.36878045          0.00000000
 Vibration                   10
         -0.00003958          0.00000000         -0.00000000
          0.57535359         -0.00000000         -0.00000000
         -0.28744099         -0.49791874         -0.00000000
         -0.28744099          0.49791874         -0.00000000
 Vibration                   11
         -0.09582544         -0.00000000         -0.00000000
          0.76687962         -0.00000000         -0.00000000
          0.18750658          0.33487190         -0.00000000
          0.18750658         -0.33487190         -0.00000000
 Vibration                   12
          0.00000000         -0.09583010          0.00000000
         -0.00000000         -0.00581183          0.00000000
          0.33464842          0.57388005          0.00000000
         -0.33464842          0.57388005         -0.00000000
