[Molden Format]
[Molpro variables]
_NUMVAR=  687.0000000000000    
_EV2006= 0.3674930886769165E-01
_EV= 0.3674932534394180E-01
_KJOULE= 0.3808798324128737E-03
_KJOULE/MOL= 0.3808798324128737E-03
_CM= 0.4556335267302901E-05
_CM-1= 0.4556335267302901E-05
_KCAL= 0.1593601117815568E-02
_KCAL/MOL= 0.1593601117815568E-02
_KELVIN2006= 0.3166828861084835E-05
_KELVIN= 0.3166814820820034E-05
_HERTZ2006= 0.1519829850815779E-15
_HERTZ= 0.1519829846011223E-15
_HZ2006= 0.1519829850815779E-15
_HZ= 0.1519829846011223E-15
_TOA2006= 0.5291772490000000    
_TOA= 0.5291772090000000    
_TOANG2006= 0.5291772490000000    
_TOANG= 0.5291772090000000    
_TORAD= 0.1745329251994330E-01
_TOCM=  219474.6306700000    
_TODEBYE=  2.541580000000000    
_TOEV2006=  27.21139610000000    
_TOEV=  27.21138390000000    
_TOHERTZ2006=  6579683899900000.    
_TOHERTZ=  6579683920700000.    
_TOHZ2006=  6579683899900000.    
_TOHZ=  6579683920700000.    
_TOK2006=  315773.3000000000    
_TOK=  315774.7000000000    
_TOKCAL=  627.5096000000000    
_TOKELVIN2006=  315773.3000000000    
_TOKELVIN=  315774.7000000000    
_TOKJ=  2625.500000000000    
_TOKJOULE=  2625.500000000000    
_ANG2006=  1.889725988578923    
_ANG=  1.889726131421507    
_ANGSTROM2006=  1.889725988578923    
_ANGSTROM=  1.889726131421507    
_IGNORE_UNDEF=  2.000000000000000    
_STRICTCHECK=  0.000000000000000    
_SEW_ONEEL=  0.000000000000000    
_CPPDONE=FALSE
_DKROLL_DONE=  0.000000000000000    
_FOCKDONE=TRUE
_GRADONE=FALSE
_HESSDONE=TRUE
_INTDONE=TRUE
_SCFDONE=TRUE
_MODUL_CUDA=FALSE
_MODUL_SLATER=FALSE
_MODUL_MRCC=FALSE
_MRCC_EXEC=
_FITC_AO_SAVED=FALSE
_FITC_MO_SAVED=FALSE
_SHARED_FS=TRUE
_LSTYP=SEWARD
_INTYP=INTS
_GEOMTYP=ZMAT
_GRADTYP=ALASKA
_DIRECT=FALSE
_SYNCM=  0.000000000000000    
_DFTNAME=B3LYP
_DFTFUNC=B88
_BASIS=6-31++G
_ZSYMEL=
_ZORIENT=  1.000000000000000    
_NELEC=  9.000000000000000    
!SPIN=  1.000000000000000    
_OPTCONV= 0.6536968500048555E-04
_QSDSTEP=  0.000000000000000    
_QSDIRC=  0.000000000000000    
_PROGRAM=FREQ
_CPUSTEP=  0.000000000000000    
_SYSSTEP=  0.000000000000000    
_WALLSTEP= 0.1000000000000000E-01
!DFSCF=  0.000000000000000    
!SCSGRD=  0.000000000000000    
_BASINP=  610.0000000000000    
_CPUTOT=  87.03000000000000    
_CPUSORT= 0.7000000000000739E-01
_SYSSORT= 0.2000000000000046E-01
_WALLSORT= 0.1500000003725290    
_DFTEXFAC= 0.2000000000000000    
_DFTFAC= 0.7200000000000000    
_DFTFUN= -5.209617792322277    
_DFTFUNS= -6.190731785714359    
_DMX= 0.7788355173752494E-03
_DMY=-0.5737316004228443E-13
_DMZ=-0.2213204812891429E-14
_FREQUENCIES= 0.3019034782998168E-04
_ENERGY= -39.80240114820492    
_ENUC=  9.637659644027938    
_FREQSTEP=  14.00000000000000    
_GRADENERG= -39.80240099857327    
_GRADEXFAC= 0.2000000000000000    
_GRADMETHOD=  2.000000000000000    
_VIRIAL= 0.1850145962580357E-04
_GRID=  1800.200000000000    
!GRID_FREEZE= -1.000000000000000    
_GRID_SPARSITY= 0.1363636363636345E-02
_GRID_RMAX=  6.068530187936071    
_ITERATIONS=  2.000000000000000    
_LASTNELEC=  9.000000000000000    
_LASTSPIN=  1.000000000000000    
_LASTSYM=  1.000000000000000    
_MPP_PROG=  0.000000000000000    
_NGRID=  12610.00000000000    
_NPROC_MPP=  1.000000000000000    
_NPROC_SMP=  1.000000000000000    
_NUMSTEP=  0.000000000000000    
_OPTCONVMX= 0.6482526502071523E-04
_OPTCONVRMS= 0.2178989500016185E-04
_OPTGRAD= 0.7245676899378019E-04
_OPTGRADMX= 0.7223515274804073E-04
_OPTGRADRMS= 0.2415225633126006E-04
_OPTSTEP=  3.000000000000000    
_ORBITAL=  2101.200000000000    
_PI=  3.141592653589793    
_SEIG_MIN= 0.7632833013564929E-02
_SEWPROP=TRUE
_STATUS=  1.000000000000000    
_SYSTOT=  4.110000000000000    
_VERSION=  2010001.000000000    
_WALLTOT=  106.7400000000000    
_ZPE= 0.3003550987466460E-01
_DATE=17-Aug-24
_LASTORB=RKS
_MACHINE=Linux-3.10.0-1160.108.1.el7.x86_64/molmod(x86_64) 64 bit serial version
_OUTPUT=/home/ospite/Desktop/MMfP/Project6/CH3/molpro/DFT/ch3_++.xml
_PGROUP=C1
_TIME=18:25:57
_LIBMOL=/usr/local/molpro/molpros_2010_1_Linux_x86_64_i8/lib/
!SURFREC=  0.000000000000000    
!POLYREC=  0.000000000000000    
!DIPREC=  0.000000000000000    
!VSCFREC=  0.000000000000000    
!VCIREC=  0.000000000000000    
!PVCIREC=  0.000000000000000    
!VMP2REC=  0.000000000000000    
!VMCSCFREC=  0.000000000000000    
!GAREC=  0.000000000000000    
!SCFORB=  21002.00000000000    
!NEWMOL=  0.000000000000000    
!NEWSYM=  0.000000000000000    
_SLFILES=slscratch
_NGSSTO=  9.000000000000000    
_SIN=SIN
_COS=COS
_TAN=TAN
_ACOS=ACOS
_ASIN=ASIN
_ATAN=ATAN
_COSH=COSH
_SINH=SINH
_TANH=TANH
_ABS=ABS
_MOD=MOD
_ERF=ERF
_REFC=REFC
_ERFC=ERFC
_HYPOT=HYPOT
_J0=J0
_J1=J1
_JN=JN
_GAMMA=GAMMA
_LGAMMA=LGAMMA
_Y0=Y0
_Y1=Y1
_YN=YN
_EXP=EXP
_LOG=LOG
_LOG10=LOG10
_SQRT=SQRT
_INT=INT
_NINT=NINT
_MAX=MAX
_MIN=MIN
_COSMO=  0.000000000000000    
_COSMOIT=  0.000000000000000    
_COSMOES=  0.000000000000000    
_COSMOEDS=  0.000000000000000    
_COSMOEC=  0.000000000000000    
_COSMOEDCORR=  0.000000000000000    
_FEPSI=  1.000000000000000    
_SL_IsMM=  0.000000000000000    
_SL_NSYM=  0.000000000000000    
_SL_System_BitSw=  0.000000000000000    
_SL_Unique_atoms=  0.000000000000000    
_SL_GRAD=  0.000000000000000    
_SL_MAXUPD_Hess=  5.000000000000000    
_SL_N_PRINT_COD=  5.000000000000000    
_SL_PRINT_CODES=  0.000000000000000    
_SL_BasType=  0.000000000000000    
_SL_Energy_Pred=  0.000000000000000    
_SL_New_Coords=  0.000000000000000    
_SL_Total_Nuclea=  0.000000000000000    
_SL_Highest_Mltp=  0.000000000000000    
_SL_Ref_Geom=  0.000000000000000    
!LATTICE= -1.000000000000000    
!NEWLATTICE=  0.000000000000000    
!LATGRAD_VAR=FALSE
!SEW_LATTICE=  1.000000000000000    
!LOCAL=  0.000000000000000    
!SAVEOCC=  0.000000000000000    
!SAVEDOM= -1.000000000000000    
!RESTDOM= -1.000000000000000    
!SAVEDOM_HF= -1.000000000000000    
!RESTDOM_HF= -1.000000000000000    
!HESSREC=  5300.200000000000    
!FREQREC=  5400.200000000000    
!NMODREC=  5450.200000000000    
!GTASKS=  0.000000000000000    
!HTASKS=  5500.200000000000    
!THRCHG= 0.1000000000000000    
!DEBUG= -1.000000000000000    
!CFIT_CPHF=  0.000000000000000    
!RDOMAUX_CPHF=  5.000000000000000    
!THRAO_CPHF= 0.9999999999999999E-11
!THRMO_CPHF= 0.9999999999999999E-11
!THROV_CPHF= 0.1000000000000000E-11
!THRSW_CPHF= 0.1000000000000000E-09
!THRPROD_CPHF= 0.9999999999999999E-11
!THRAOPR_CPHF= 0.1000000000000000E-11
!CFIT_SCFGRD=  0.000000000000000    
!RDOMAUX_SCFGRD=  7.000000000000000    
!THRAO_SCFGRD= 0.9999999999999999E-11
!THRMO_SCFGRD= 0.9999999999999999E-11
!THROV_SCFGRD= 0.1000000000000000E-11
!THRSW_SCFGRD= 0.1000000000000000E-09
!THRPROD_SCFGRD= 0.9999999999999999E-11
!THRAOPR_SCFGRD= 0.1000000000000000E-11
!LOCFIT_SCF=  0.000000000000000    
!LOCFIT_MP2= -1.000000000000000    
_RIDOM=  0.000000000000000    
!CC2_METHOD=  0.000000000000000    
_BASIS2006=FALSE
_SVDDEL= -1.000000000000000    
_SVDDELA= -1.000000000000000    
_SVDDELP= -1.000000000000000    
_SVDDELF= -1.000000000000000    
_SVDDELS= -1.000000000000000    
_SVDDEL_ABS= -1.000000000000000    
_SVDDELA_ABS= -1.000000000000000    
_SVDDELP_ABS= -1.000000000000000    
_SVDDELF_ABS= -1.000000000000000    
_SVDDELS_ABS= -1.000000000000000    
_MAXBASIS=  0.000000000000000    
!OPT_CONICAL=  0.000000000000000    
!CLEARSP_JGRID=  0.000000000000000    
D=  1.083432282154065    
A=  119.9914228652776    
T=  0.000000000000000    
GX1=-0.3559066315549086E-04
GY1= -0.000000000000000    
GZ1=  0.000000000000000    
GX2=  2.047354704549020    
GY2= -0.000000000000000    
GZ2=  0.000000000000000    
GX3= -1.023465296271593    
GY3= -1.773245233634430    
GZ3=  0.000000000000000    
GX4= -1.023465296271592    
GY4=  1.773245233634430    
GZ4=  0.000000000000000    
CX1=-0.3559066315549086E-04
CY1=  0.000000000000000    
CZ1=  0.000000000000000    
H1X2=  2.047354704549020    
H1Y2=  0.000000000000000    
H1Z2=  0.000000000000000    
H2X3= -1.023465296271592    
H2Y3= -1.773245233634430    
H2Z3=  0.000000000000000    
H3X4= -1.023465296271592    
H3Y4=  1.773245233634430    
H3Z4=  0.000000000000000    
[Atoms] Angs
C     1    6        -0.0000188338       -0.0000000000        0.0000000000
H     2    1         1.0834134484       -0.0000000000        0.0000000000
H     3    1        -0.5415945090       -0.9383609636        0.0000000000
H     4    1        -0.5415945090        0.9383609636        0.0000000000
[GTO]
  1 0
 s    6  1.00
  0.3047524900D+04  0.1834737091D-02
  0.4573695200D+03  0.1403732293D-01
  0.1039486800D+03  0.6884262165D-01
  0.2921015500D+02  0.2321844388D+00
  0.9286663000D+01  0.4679413476D+00
  0.3163927000D+01  0.3623119882D+00
 s    3  1.00
  0.7868272300D+01 -0.1193324245D+00
  0.1881288500D+01 -0.1608541561D+00
  0.5442492600D+00  0.1143456443D+01
 s    1  1.00
  0.1687144800D+00  0.1000000000D+01
 s    1  1.00
  0.4380000000D-01  0.1000000000D+01
 p    3  1.00
  0.7868272300D+01  0.6899906693D-01
  0.1881288500D+01  0.3164239597D+00
  0.5442492600D+00  0.7443082892D+00
 p    1  1.00
  0.1687144800D+00  0.1000000000D+01
 p    1  1.00
  0.4380000000D-01  0.1000000000D+01
  
  2 0
 s    3  1.00
  0.1873113700D+02  0.3349460400D-01
  0.2825394400D+01  0.2347269500D+00
  0.6401216900D+00  0.8137573301D+00
 s    1  1.00
  0.1612777600D+00  0.1000000000D+01
 s    1  1.00
  0.3600000000D-01  0.1000000000D+01
  
  3 0
 s    3  1.00
  0.1873113700D+02  0.3349460400D-01
  0.2825394400D+01  0.2347269500D+00
  0.6401216900D+00  0.8137573301D+00
 s    1  1.00
  0.1612777600D+00  0.1000000000D+01
 s    1  1.00
  0.3600000000D-01  0.1000000000D+01
  
  4 0
 s    3  1.00
  0.1873113700D+02  0.3349460400D-01
  0.2825394400D+01  0.2347269500D+00
  0.6401216900D+00  0.8137573301D+00
 s    1  1.00
  0.1612777600D+00  0.1000000000D+01
 s    1  1.00
  0.3600000000D-01  0.1000000000D+01


[MO]
 Sym=      1.1
 Ene=     -10.1882
 Spin= Alpha
 Occup=    2.000000
1 0.99518794761944
2 0.035115469776639
3 -0.024238610941515
4 0.015402117957946
5 0.000000350634577
6 -0.000000000000001
7 0.000000000000000
8 -0.000000725327370
9 0.000000000000001
10 -0.000000000000000
11 -0.000000956678043
12 -0.000000000000002
13 0.000000000000000
14 -0.000782427054263
15 0.003580768924641
16 -0.004267051151897
17 -0.000782443165011
18 0.003580220965777
19 -0.004270317930466
20 -0.000782443165011
21 0.003580220965775
22 -0.004270317930460
 Sym=      2.1
 Ene=      -0.6691
 Spin= Alpha
 Occup=    2.000000
1 -0.20110066919646
2 0.39996070892999
3 0.36247776001423
4 -0.005020169458973
5 0.000037849541722
6 -0.000000000000040
7 -0.000000000000000
8 0.000076604424989
9 0.000000000000005
10 0.000000000000000
11 -0.000440513049259
12 -0.000000000000025
13 0.000000000000000
14 0.15650779872314
15 0.048941476510400
16 0.006660416970378
17 0.15650194583030
18 0.048825427124020
19 0.005824513760137
20 0.15650194583029
21 0.048825427124018
22 0.005824513760207
 Sym=      3.1
 Ene=      -0.4195
 Spin= Alpha
 Occup=    2.000000
1 -0.000000000000011
2 -0.000000000000019
3 0.000000000000126
4 -0.000000000000264
5 -0.000000000160910
6 0.45604591269483
7 -0.000000000000000
8 -0.000000000062364
9 0.17701660407001
10 -0.000000000000000
11 -0.000000000014239
12 0.038139643628394
13 0.000000000000000
14 -0.000000000103860
15 -0.000000000074240
16 0.000000000006580
17 -0.25490802724698
18 -0.18251069049007
19 0.013874358021091
20 0.25490802735089
21 0.18251069056418
22 -0.013874358027280
 Sym=      4.1
 Ene=      -0.4194
 Spin= Alpha
 Occup=    2.000000
1 0.000020323210341
2 -0.000023959547323
3 -0.000196142043350
4 0.000840960910728
5 0.45606625320258
6 0.000000000160900
7 0.000000000000000
8 0.17673982134672
9 0.000000000062447
10 0.000000000000000
11 0.040343485428910
12 0.000000000013481
13 -0.000000000000000
14 0.29441404740833
15 0.21041975008136
16 -0.018639463037249
17 -0.14721771078908
18 -0.10507095243625
19 0.008729775701796
20 -0.14721771060921
21 -0.10507095230746
22 0.008729775691940
 Sym=      5.1
 Ene=      -0.2306
 Spin= Alpha
 Occup=    1.000000
1 0.000000000000000
2 0.000000000000000
3 -0.000000000000000
4 0.000000000000012
5 -0.000000000000000
6 0.000000000000000
7 0.59640241335988
8 0.000000000000000
9 -0.000000000000001
10 0.46313121890986
11 0.000000000000002
12 0.000000000000001
13 0.13173860974225
14 -0.000000000000000
15 -0.000000000000002
16 -0.000000000000007
17 0.000000000000000
18 -0.000000000000002
19 -0.000000000000001
20 -0.000000000000000
21 0.000000000000000
22 -0.000000000000002
 Sym=      6.1
 Ene=      -0.0008
 Spin= Alpha
 Occup=    0.000000
1 -0.068832967546485
2 0.17286223351330
3 0.48583258903022
4 2.28915694252944
5 -0.005353558548520
6 -0.000000000000028
7 -0.000000000000000
8 -0.002591871946134
9 -0.000000000000182
10 0.000000000000000
11 0.069686808717439
12 0.000000000000455
13 -0.000000000000001
14 -0.010607296122553
15 -0.20221504181458
16 -1.13168649966254
17 -0.008785879660704
18 -0.17069280662309
19 -1.08451156945593
20 -0.008785879660692
21 -0.17069280662273
22 -1.08451156945751
 Sym=      7.1
 Ene=       0.0393
 Spin= Alpha
 Occup=    0.000000
1 0.003576835609468
2 -0.006557672107656
3 -0.034883507749766
4 0.023521281934229
5 -0.18204169079585
6 -0.000000000000682
7 -0.000000000000001
8 -0.14573770981704
9 -0.000000000000670
10 -0.000000000000001
11 -1.05040967291433
12 -0.000000000005101
13 0.000000000000004
14 -0.022721884650104
15 0.061049716746391
16 3.57432535686896
17 0.012552773945957
18 -0.020305230557219
19 -1.77854798441884
20 0.012552773945820
21 -0.020305230556241
22 -1.77854798439291
 Sym=      8.1
 Ene=       0.0421
 Spin= Alpha
 Occup=    0.000000
1 0.000000000000023
2 -0.000000000000134
3 0.000000000000108
4 0.000000000002557
5 -0.000000000000721
6 0.18381913890031
7 0.000000000000001
8 -0.000000000000826
9 0.15533499447480
10 0.000000000000000
11 -0.000000000003350
12 1.13751721458096
13 -0.000000000000001
14 -0.000000000000076
15 0.000000000000141
16 0.000000000011729
17 -0.019445859779512
18 0.072661920592476
19 3.19278469569939
20 0.019445859779620
21 -0.072661920593644
22 -3.19278469571295
 Sym=      9.1
 Ene=       0.0794
 Spin= Alpha
 Occup=    0.000000
1 0.000000000000000
2 -0.000000000000000
3 -0.000000000000003
4 0.000000000000036
5 0.000000000000001
6 0.000000000000000
7 -0.26222609819974
8 0.000000000000000
9 -0.000000000000001
10 -0.38241920696588
11 -0.000000000000016
12 -0.000000000000009
13 1.13011725603618
14 0.000000000000000
15 0.000000000000001
16 0.000000000000005
17 -0.000000000000000
18 -0.000000000000005
19 -0.000000000000028
20 0.000000000000000
21 -0.000000000000001
22 -0.000000000000009
 Sym=     10.1
 Ene=       0.1063
 Spin= Alpha
 Occup=    0.000000
1 0.005430061066017
2 -0.009565515721142
3 -0.070139984731228
4 0.020101128344783
5 -0.046833798725585
6 -0.000000000000089
7 -0.000000000000002
8 0.20849958307180
9 0.000000000000690
10 -0.000000000000002
11 3.72007647561838
12 0.000000000007284
13 0.000000000000005
14 -0.073495912770880
15 -0.76697913681874
16 -5.32019479660469
17 0.040377240734933
18 0.42979414702269
19 2.65693366692644
20 0.040377240734647
21 0.42979414701929
22 2.65693366690921
 Sym=     11.1
 Ene=       0.1156
 Spin= Alpha
 Occup=    0.000000
1 0.000000000000007
2 -0.000000000000118
3 0.000000000000426
4 0.000000000005065
5 -0.000000000000050
6 -0.053248997620695
7 -0.000000000000001
8 -0.000000000001172
9 0.24397648352176
10 -0.000000000000002
11 -0.000000000007313
12 3.65898285946722
13 0.000000000000004
14 0.000000000000166
15 0.000000000001778
16 0.000000000009126
17 0.072016546425013
18 0.71381635889283
19 4.47480519888006
20 -0.072016546425234
21 -0.71381635889675
22 -4.47480519889326
 Sym=     12.1
 Ene=       0.1412
 Spin= Alpha
 Occup=    0.000000
1 0.095553034991763
2 -0.14219271888257
3 -1.12753320631018
4 7.99439460354090
5 0.006086006105541
6 -0.000000000000174
7 -0.000000000000001
8 0.005906884733002
9 -0.000000000001188
10 0.000000000000002
11 -0.058106123917641
12 -0.000000000001314
13 -0.000000000000005
14 0.022661678164199
15 -0.13744528670037
16 -2.32192445846287
17 0.020159786426029
18 -0.13895530311805
19 -2.41898339051284
20 0.020159786426163
21 -0.13895530311519
22 -2.41898339050982
 Sym=     13.1
 Ene=       0.1942
 Spin= Alpha
 Occup=    0.000000
1 0.11230816069529
2 -0.089660786004970
3 -2.14112395882059
4 -2.97616798152484
5 0.000091168193612
6 0.000000000000950
7 0.000000000000000
8 -0.015238677769180
9 0.000000000004015
10 0.000000000000000
11 -0.055496679243665
12 -0.000000000002193
13 0.000000000000001
14 0.15494913021743
15 1.53398303011426
16 0.57989520414360
17 0.15032645430811
18 1.49622652453220
19 0.47394132428939
20 0.15032645430754
21 1.49622652452330
22 0.47394132429895
 Sym=     14.1
 Ene=       0.2199
 Spin= Alpha
 Occup=    0.000000
1 -0.000087748221806
2 -0.000876222628090
3 0.006000294930357
4 0.064388100833927
5 -0.40460276365395
6 -0.000000000006236
7 -0.000000000000000
8 -1.52770282845354
9 -0.000000000023737
10 -0.000000000000000
11 1.39080493524825
12 0.000000000020734
13 0.000000000000001
14 0.13207131764562
15 1.91660511479793
16 -3.09764799295698
17 -0.067372138444116
18 -0.97173100218764
19 1.52256752308445
20 -0.067372138440525
21 -0.97173100213576
22 1.52256752300418
 Sym=     15.1
 Ene=       0.2207
 Spin= Alpha
 Occup=    0.000000
1 -0.000000000000242
2 0.000000000000214
3 0.000000000004705
4 0.000000000013100
5 -0.000000000006270
6 0.40575312781494
7 -0.000000000000000
8 -0.000000000023562
9 1.52127024269641
10 0.000000000000000
11 0.000000000021120
12 -1.44207856838710
13 0.000000000000000
14 0.000000000001663
15 0.000000000025843
16 -0.000000000049999
17 0.11383521115407
18 1.65773951891821
19 -2.73930711393360
20 -0.11383521115700
21 -1.65773951895575
22 2.73930711397458
 Sym=     16.1
 Ene=       0.6532
 Spin= Alpha
 Occup=    0.000000
1 -0.000000000000000
2 -0.000000000000001
3 0.000000000000004
4 -0.000000000000010
5 0.000000000000003
6 -0.000000000000005
7 -1.07745081061848
8 -0.000000000000006
9 0.000000000000011
10 1.41408223418373
11 0.000000000000005
12 -0.000000000000008
13 -0.58656546722166
14 0.000000000000001
15 0.000000000000001
16 -0.000000000000003
17 0.000000000000001
18 0.000000000000001
19 -0.000000000000003
20 -0.000000000000001
21 -0.000000000000004
22 0.000000000000015
 Sym=     17.1
 Ene=       0.7176
 Spin= Alpha
 Occup=    0.000000
1 0.000246935677044
2 0.000741173224487
3 -0.003518627180700
4 0.014692857611238
5 -0.98988072497075
6 -0.000000000000873
7 -0.000000000000003
8 2.25512355678598
9 0.000000000002005
10 0.000000000000004
11 -1.98843167177323
12 -0.000000000001630
13 -0.000000000000001
14 -0.30600951397850
15 -0.61442728264078
16 2.57243439516566
17 0.15557826061129
18 0.30652848927721
19 -1.29416625022408
20 0.15557826061076
21 0.30652848927630
22 -1.29416625022057
 Sym=     18.1
 Ene=       0.7206
 Spin= Alpha
 Occup=    0.000000
1 -0.000000000000010
2 0.000000000000295
3 -0.000000000000598
4 0.000000000000604
5 0.000000000000843
6 -0.99118057434139
7 0.000000000000005
8 -0.000000000002060
9 2.25887463809893
10 -0.000000000000007
11 0.000000000001860
12 -2.02019933237322
13 0.000000000000003
14 0.000000000000201
15 0.000000000000759
16 -0.000000000002648
17 0.26213063517982
18 0.53464329626528
19 -2.27185108102048
20 -0.26213063518040
21 -0.53464329626546
22 2.27185108102254
 Sym=     19.1
 Ene=       0.9975
 Spin= Alpha
 Occup=    0.000000
1 0.077933869592786
2 -0.28274089145532
3 0.92642872435048
4 2.76005429271979
5 0.007956697735300
6 0.000000000000354
7 0.000000000000000
8 -0.010976835993966
9 -0.000000000000109
10 -0.000000000000001
11 0.004661230059399
12 -0.000000000000871
13 0.000000000000000
14 0.81392706893797
15 -1.32161218051076
16 -0.55563150054633
17 0.83034915953410
18 -1.34941132002335
19 -0.53641444908091
20 0.83034915953245
21 -1.34941132002122
22 -0.53641444907950
 Sym=     20.1
 Ene=       1.0130
 Spin= Alpha
 Occup=    0.000000
1 -0.014556069494529
2 -2.20786643679286
3 4.21207436807981
4 -3.93067868944051
5 -0.001999398832034
6 0.000000000001402
7 0.000000000000001
8 0.003341850960723
9 -0.000000000001367
10 -0.000000000000001
11 -0.003080536353414
12 -0.000000000001315
13 0.000000000000000
14 -0.10961623958030
15 -0.53261949061993
16 1.07225148160067
17 -0.11348441550132
18 -0.52527389295536
19 1.06188524854981
20 -0.11348441550615
21 -0.52527389294804
22 1.06188524855038
 Sym=     21.1
 Ene=       1.0219
 Spin= Alpha
 Occup=    0.000000
1 -0.000786245656042
2 -0.002519508784131
3 -0.000189005201250
4 -0.032882660422453
5 0.62905598675724
6 -0.000000000010367
7 0.000000000000000
8 -0.68512693590277
9 0.000000000011294
10 -0.000000000000000
11 -0.34917172939903
12 0.000000000005794
13 0.000000000000000
14 -1.13624989861179
15 1.78332365253248
16 -0.15059071232003
17 0.55523018745665
18 -0.87248873851537
19 0.084506034126846
20 0.55523018748894
21 -0.87248873856611
22 0.084506034131452
 Sym=     22.1
 Ene=       1.0225
 Spin= Alpha
 Occup=    0.000000
1 0.000000000000040
2 -0.000000000005562
3 0.000000000011018
4 -0.000000000006376
5 -0.000000000010423
6 -0.62540654503023
7 0.000000000000000
8 0.000000000011378
9 0.67608690295338
10 0.000000000000000
11 0.000000000005624
12 0.36475872120977
13 0.000000000000000
14 0.000000000019148
15 -0.000000000031882
16 0.000000000004756
17 -0.97761779040937
18 1.53241515785731
19 -0.11902255541589
20 0.97761779039178
21 -1.53241515783329
22 0.11902255541694
 [FREQ]
      0.00
      0.00
      0.00
      0.00
      0.00
      0.00
    561.27
   1431.41
   1431.49
   3128.25
   3315.62
   3316.03
 [FR-COORD]
C         -0.0000355907       -0.0000000000        0.0000000000
H          2.0473547045       -0.0000000000        0.0000000000
H         -1.0234652963       -1.7732452336        0.0000000000
H         -1.0234652963        1.7732452336        0.0000000000
 [FR-NORM-COORD]
 Vibration                    1
          0.04393659          0.25153472          0.03606916
          0.04393659          0.24751442          0.04478370
          0.04045461          0.25354434          0.03317362
          0.04741857          0.25354434          0.03025240
 Vibration                    2
         -0.03021451         -0.02728662          0.21480100
         -0.03021451         -0.14081805          0.61516923
         -0.12854411          0.02946437          0.01967338
          0.06811508          0.02946437          0.00966419
 Vibration                    3
         -0.00098398         -0.00023973          0.00732419
         -0.00098398         -0.00640646         -0.02442973
         -0.00632499          0.00284284         -0.68025193
          0.00435702          0.00284284          0.72664601
 Vibration                    4
          0.02331760          0.01071104         -0.11808128
          0.02331760          0.10026506          0.58810479
          0.10088035         -0.03405435         -0.50560260
         -0.05424516         -0.03405435         -0.43656290
 Vibration                    5
          0.15797334         -0.02464105         -0.03087260
          0.15797334         -0.47047771         -0.01718234
         -0.22816590          0.19821948         -0.03629931
          0.54411259          0.19821948         -0.03913258
 Vibration                    6
          0.19536805         -0.04214298          0.06420179
          0.19536805          0.29098415          0.02864603
          0.48388954         -0.20866336          0.08185212
         -0.09315345         -0.20866336          0.08209798
 Vibration                    7
         -0.00000000          0.00000000         -0.12940149
         -0.00000000         -0.00000000          0.51391040
         -0.00000000          0.00000000          0.51404369
          0.00000000          0.00000000          0.51404369
 Vibration                    8
         -0.08869847         -0.00000000          0.00000000
         -0.06645799          0.00000000         -0.00000000
          0.56171150         -0.36257074         -0.00000000
          0.56171150          0.36257074         -0.00000000
 Vibration                    9
          0.00000000         -0.08868727         -0.00000000
          0.00000000          0.77104993          0.00000000
         -0.36265789          0.14289081          0.00000000
          0.36265789          0.14289081         -0.00000000
 Vibration                   10
         -0.00012707         -0.00000000         -0.00000000
          0.57602590         -0.00000000          0.00000000
         -0.28725585         -0.49763675          0.00000000
         -0.28725585          0.49763675          0.00000000
 Vibration                   11
         -0.09421948          0.00000000         -0.00000000
          0.76771595          0.00000000          0.00000000
          0.17751977          0.34199619          0.00000000
          0.17751977         -0.34199619          0.00000000
 Vibration                   12
         -0.00000000         -0.09423011          0.00000000
          0.00000000         -0.01990650          0.00000000
          0.34127265          0.57139432          0.00000000
         -0.34127265          0.57139432          0.00000000
