 Entering Gaussian System, Link 0=/programs/64bit/g09/g09-gfortran/bin/g09
 Input=ch4_sto-3g.com
 Output=ch4_sto-3g.log
 Initial command:
 /programs/64bit/g09/g09-gfortran/bin/l1.exe /home/ospite/Desktop/MMfP/Project6/CH4/g09/DFT/Gau-4779.inp -scrdir=/home/ospite/Desktop/MMfP/Project6/CH4/g09/DFT/
 Entering Link 1 = /programs/64bit/g09/g09-gfortran/bin/l1.exe PID=      4780.
  
 Copyright (c) 1988,1990,1992,1993,1995,1998,2003,2009, Gaussian, Inc.
                  All Rights Reserved.
  
 This is part of the Gaussian(R) 09 program.  It is based on
 the Gaussian(R) 03 system (copyright 2003, Gaussian, Inc.),
 the Gaussian(R) 98 system (copyright 1998, Gaussian, Inc.),
 the Gaussian(R) 94 system (copyright 1995, Gaussian, Inc.),
 the Gaussian 92(TM) system (copyright 1992, Gaussian, Inc.),
 the Gaussian 90(TM) system (copyright 1990, Gaussian, Inc.),
 the Gaussian 88(TM) system (copyright 1988, Gaussian, Inc.),
 the Gaussian 86(TM) system (copyright 1986, Carnegie Mellon
 University), and the Gaussian 82(TM) system (copyright 1983,
 Carnegie Mellon University). Gaussian is a federally registered
 trademark of Gaussian, Inc.
  
 This software contains proprietary and confidential information,
 including trade secrets, belonging to Gaussian, Inc.
  
 This software is provided under written license and may be
 used, copied, transmitted, or stored only in accord with that
 written license.
  
 The following legend is applicable only to US Government
 contracts under FAR:
  
                    RESTRICTED RIGHTS LEGEND
  
 Use, reproduction and disclosure by the US Government is
 subject to restrictions as set forth in subparagraphs (a)
 and (c) of the Commercial Computer Software - Restricted
 Rights clause in FAR 52.227-19.
  
 Gaussian, Inc.
 340 Quinnipiac St., Bldg. 40, Wallingford CT 06492
  
  
 ---------------------------------------------------------------
 Warning -- This program may not be used in any manner that
 competes with the business of Gaussian, Inc. or will provide
 assistance to any competitor of Gaussian, Inc.  The licensee
 of this program is prohibited from giving any competitor of
 Gaussian, Inc. access to this program.  By using this program,
 the user acknowledges that Gaussian, Inc. is engaged in the
 business of creating and licensing software in the field of
 computational chemistry and represents and warrants to the
 licensee that it is not a competitor of Gaussian, Inc. and that
 it will not use this program in any manner prohibited above.
 ---------------------------------------------------------------
  

 Cite this work as:
 Gaussian 09, Revision A.02,
 M. J. Frisch, G. W. Trucks, H. B. Schlegel, G. E. Scuseria, 
 M. A. Robb, J. R. Cheeseman, G. Scalmani, V. Barone, B. Mennucci, 
 G. A. Petersson, H. Nakatsuji, M. Caricato, X. Li, H. P. Hratchian, 
 A. F. Izmaylov, J. Bloino, G. Zheng, J. L. Sonnenberg, M. Hada, 
 M. Ehara, K. Toyota, R. Fukuda, J. Hasegawa, M. Ishida, T. Nakajima, 
 Y. Honda, O. Kitao, H. Nakai, T. Vreven, J. A. Montgomery, Jr., 
 J. E. Peralta, F. Ogliaro, M. Bearpark, J. J. Heyd, E. Brothers, 
 K. N. Kudin, V. N. Staroverov, R. Kobayashi, J. Normand, 
 K. Raghavachari, A. Rendell, J. C. Burant, S. S. Iyengar, J. Tomasi, 
 M. Cossi, N. Rega, J. M. Millam, M. Klene, J. E. Knox, J. B. Cross, 
 V. Bakken, C. Adamo, J. Jaramillo, R. Gomperts, R. E. Stratmann, 
 O. Yazyev, A. J. Austin, R. Cammi, C. Pomelli, J. W. Ochterski, 
 R. L. Martin, K. Morokuma, V. G. Zakrzewski, G. A. Voth, 
 P. Salvador, J. J. Dannenberg, S. Dapprich, A. D. Daniels, 
 O. Farkas, J. B. Foresman, J. V. Ortiz, J. Cioslowski, 
 and D. J. Fox, Gaussian, Inc., Wallingford CT, 2009.
 
 ******************************************
 Gaussian 09:  EM64L-G09RevA.02 11-Jun-2009
                17-Aug-2024 
 ******************************************
 %mem=100MB
 -----------------------------------------------------------------
 #p b3lyp/STO-3G opt freq symmetry=(follow,pg=Td) pop=full gfinput
 -----------------------------------------------------------------
 1/14=-1,18=20,19=15,26=3,38=1/1,3;
 2/9=110,12=2,17=6,18=5,19=2314885530818462804,40=1/2;
 3/6=3,11=2,16=1,24=10,25=1,30=1,71=1,74=-5/1,2,3;
 4//1;
 5/5=2,38=5/2;
 6/7=3,28=1/1;
 7//1,2,3,16;
 1/14=-1,18=20,19=15/3(2);
 2/9=110,15=5,19=2314885530818462804/2;
 99//99;
 2/9=110,15=5,19=2314885530818462804/2;
 3/6=3,11=2,16=1,25=1,30=1,71=1,74=-5/1,2,3;
 4/5=5,16=3/1;
 5/5=2,38=5/2;
 7//1,2,3,16;
 1/14=-1,18=20,19=15/3(-5);
 2/9=110,15=5,19=2314885530818462804/2;
 6/7=3,19=2,28=1/1;
 99/9=1/99;
 Leave Link    1 at Sat Aug 17 15:03:35 2024, MaxMem=   13107200 cpu:       0.1
 (Enter /programs/64bit/g09/g09-gfortran/bin/l101.exe)
 ----------------------------------------------------------
 methane with imposed symmetry and hf/STO-3G basis function
 ----------------------------------------------------------
 Symbolic Z-matrix:
 Charge =  0 Multiplicity = 1
 C1
 H2                   1    d
 H3                   1    d        2    a
 H4                   1    d        2    a        3    t        0
 H5                   1    d        2    a        3    -t       0
       Variables:
  d                     1.09                     
  a                   109.471                    
  t                   120.                       
 
     3 tetrahedral angles replaced.
 NAtoms=      5 NQM=      5 NQMF=      0 NMic=      0 NMicF=      0 NTot=      5.
                    Isotopes and Nuclear Properties:
 (Nuclear quadrupole moments (NQMom) in fm**2, nuclear magnetic moments (NMagM)
  in nuclear magnetons)

  Atom         1           2           3           4           5
 IAtWgt=          12           1           1           1           1
 AtmWgt=  12.0000000   1.0078250   1.0078250   1.0078250   1.0078250
 NucSpn=           0           1           1           1           1
 AtZEff=   0.0000000   0.0000000   0.0000000   0.0000000   0.0000000
 NQMom=    0.0000000   0.0000000   0.0000000   0.0000000   0.0000000
 NMagM=    0.0000000   2.7928460   2.7928460   2.7928460   2.7928460
 Leave Link  101 at Sat Aug 17 15:03:36 2024, MaxMem=   13107200 cpu:       0.1
 (Enter /programs/64bit/g09/g09-gfortran/bin/l103.exe)

 GradGradGradGradGradGradGradGradGradGradGradGradGradGradGradGradGradGrad
 Berny optimization.
 Initialization pass.
                           ----------------------------
                           !    Initial Parameters    !
                           ! (Angstroms and Degrees)  !
 --------------------------                            --------------------------
 ! Name  Definition              Value          Derivative Info.                !
 --------------------------------------------------------------------------------
 ! R1    R(1,2)                  1.09           estimate D2E/DX2                !
 ! R2    R(1,3)                  1.09           estimate D2E/DX2                !
 ! R3    R(1,4)                  1.09           estimate D2E/DX2                !
 ! R4    R(1,5)                  1.09           estimate D2E/DX2                !
 ! A1    A(2,1,3)              109.4712         estimate D2E/DX2                !
 ! A2    A(2,1,4)              109.4712         estimate D2E/DX2                !
 ! A3    A(2,1,5)              109.4712         estimate D2E/DX2                !
 ! A4    A(3,1,4)              109.4712         estimate D2E/DX2                !
 ! A5    A(3,1,5)              109.4712         estimate D2E/DX2                !
 ! A6    A(4,1,5)              109.4712         estimate D2E/DX2                !
 ! D1    D(2,1,4,3)           -120.0            estimate D2E/DX2                !
 ! D2    D(2,1,5,3)            120.0            estimate D2E/DX2                !
 ! D3    D(2,1,5,4)           -120.0            estimate D2E/DX2                !
 ! D4    D(3,1,5,4)            120.0            estimate D2E/DX2                !
 --------------------------------------------------------------------------------
 Trust Radius=3.00D-01 FncErr=1.00D-07 GrdErr=1.00D-06
 Number of steps in this run=  24 maximum allowed number of steps= 100.
 GradGradGradGradGradGradGradGradGradGradGradGradGradGradGradGradGradGrad

 Leave Link  103 at Sat Aug 17 15:03:36 2024, MaxMem=   13107200 cpu:       0.0
 (Enter /programs/64bit/g09/g09-gfortran/bin/l202.exe)
                          Input orientation:                          
 ---------------------------------------------------------------------
 Center     Atomic      Atomic             Coordinates (Angstroms)
 Number     Number       Type             X           Y           Z
 ---------------------------------------------------------------------
      1          6           0        0.000000    0.000000    0.000000
      2          1           0        0.000000    0.000000    1.090000
      3          1           0        1.027662    0.000000   -0.363333
      4          1           0       -0.513831   -0.889981   -0.363333
      5          1           0       -0.513831    0.889981   -0.363333
 ---------------------------------------------------------------------
                    Distance matrix (angstroms):
                    1          2          3          4          5
     1  C    0.000000
     2  H    1.090000   0.000000
     3  H    1.090000   1.779963   0.000000
     4  H    1.090000   1.779963   1.779963   0.000000
     5  H    1.090000   1.779963   1.779963   1.779963   0.000000
 Symm:  InNGrp=TD   InAxis=0.
 Stoichiometry    CH4
 Framework group  TD[O(C),4C3(H)]
 Deg. of freedom     1
 Full point group                 TD      NOp  24
 Largest Abelian subgroup         D2      NOp   4
 Largest concise Abelian subgroup D2      NOp   4
                         Standard orientation:                         
 ---------------------------------------------------------------------
 Center     Atomic      Atomic             Coordinates (Angstroms)
 Number     Number       Type             X           Y           Z
 ---------------------------------------------------------------------
      1          6           0        0.000000    0.000000    0.000000
      2          1           0        0.629312    0.629312    0.629312
      3          1           0       -0.629312   -0.629312    0.629312
      4          1           0       -0.629312    0.629312   -0.629312
      5          1           0        0.629312   -0.629312   -0.629312
 ---------------------------------------------------------------------
 Rotational constants (GHZ):    158.2742720    158.2742720    158.2742720
 Leave Link  202 at Sat Aug 17 15:03:36 2024, MaxMem=   13107200 cpu:       0.0
 (Enter /programs/64bit/g09/g09-gfortran/bin/l301.exe)
 Standard basis: STO-3G (5D, 7F)
 Ernie: Thresh=  0.10000D-02 Tol=  0.10000D-05 Strict=F.
 AO basis set in the form of general basis input (Overlap normalization):
      1 0
 S   3 1.00       0.000000000000
      0.7161683735D+02  0.1543289673D+00
      0.1304509632D+02  0.5353281423D+00
      0.3530512160D+01  0.4446345422D+00
 SP   3 1.00       0.000000000000
      0.2941249355D+01 -0.9996722919D-01  0.1559162750D+00
      0.6834830964D+00  0.3995128261D+00  0.6076837186D+00
      0.2222899159D+00  0.7001154689D+00  0.3919573931D+00
 ****
      2 0
 S   3 1.00       0.000000000000
      0.3425250914D+01  0.1543289673D+00
      0.6239137298D+00  0.5353281423D+00
      0.1688554040D+00  0.4446345422D+00
 ****
      3 0
 S   3 1.00       0.000000000000
      0.3425250914D+01  0.1543289673D+00
      0.6239137298D+00  0.5353281423D+00
      0.1688554040D+00  0.4446345422D+00
 ****
      4 0
 S   3 1.00       0.000000000000
      0.3425250914D+01  0.1543289673D+00
      0.6239137298D+00  0.5353281423D+00
      0.1688554040D+00  0.4446345422D+00
 ****
      5 0
 S   3 1.00       0.000000000000
      0.3425250914D+01  0.1543289673D+00
      0.6239137298D+00  0.5353281423D+00
      0.1688554040D+00  0.4446345422D+00
 ****

 There are     3 symmetry adapted basis functions of A   symmetry.
 There are     2 symmetry adapted basis functions of B1  symmetry.
 There are     2 symmetry adapted basis functions of B2  symmetry.
 There are     2 symmetry adapted basis functions of B3  symmetry.
 Integral buffers will be    131072 words long.
 Raffenetti 2 integral format.
 Two-electron integral symmetry is turned on.
     9 basis functions,    27 primitive gaussians,     9 cartesian basis functions
     5 alpha electrons        5 beta electrons
       nuclear repulsion energy        13.4353891954 Hartrees.
 IExCor=  402 DFT=T Ex+Corr=B3LYP ExCW=0 ScaHFX=  0.200000
 ScaDFX=  0.800000  0.720000  1.000000  0.810000 ScalE2=  1.000000  1.000000
 IRadAn=      0 IRanWt=     -1 IRanGd=            0 ICorTp=0
 NAtoms=    5 NActive=    5 NUniq=    2 SFac= 3.00D+00 NAtFMM=   80 NAOKFM=F Big=F
 Leave Link  301 at Sat Aug 17 15:03:36 2024, MaxMem=   13107200 cpu:       0.1
 (Enter /programs/64bit/g09/g09-gfortran/bin/l302.exe)
 NPDir=0 NMtPBC=     1 NCelOv=     1 NCel=       1 NClECP=     1 NCelD=      1
         NCelK=      1 NCelE2=     1 NClLst=     1 CellRange=     0.0.
 One-electron integrals computed using PRISM.
 One-electron integral symmetry used in STVInt
 NBasis=     9 RedAO= T  NBF=     3     2     2     2
 NBsUse=     9 1.00D-06 NBFU=     3     2     2     2
 Precomputing XC quadrature grid using
 IXCGrd= 2 IRadAn=           0 IRanWt=          -1 IRanGd=           0 AccXCQ= 1.00D-10.
 NRdTot=     303 NPtTot=       38382 NUsed=       40581 NTot=       40613
 NSgBfM=     9     9     9     9     9 NAtAll=     5     5.
 Leave Link  302 at Sat Aug 17 15:03:36 2024, MaxMem=   13107200 cpu:       0.1
 (Enter /programs/64bit/g09/g09-gfortran/bin/l303.exe)
 DipDrv:  MaxL=1.
 Leave Link  303 at Sat Aug 17 15:03:36 2024, MaxMem=   13107200 cpu:       0.0
 (Enter /programs/64bit/g09/g09-gfortran/bin/l401.exe)
 Harris functional with IExCor=  402 diagonalized for initial guess.
 ExpMin= 1.69D-01 ExpMax= 7.16D+01 ExpMxC= 7.16D+01 IAcc=1 IRadAn=         1 AccDes= 0.00D+00
 HarFok:  IExCor=  402 AccDes= 0.00D+00 IRadAn=         1 IDoV= 1
 ScaDFX=  1.000000  1.000000  1.000000  1.000000
 FoFCou: FMM=F IPFlag=           0 FMFlag=      100000 FMFlg1=           0
         NFxFlg=           0 DoJE=T BraDBF=F KetDBF=T FulRan=T
         Omega=  0.000000  0.000000  1.000000  0.000000  0.000000 ICntrl=     500 IOpCl=  0
         NMat0=    1 NMatS0=    1 NMatT0=    0 NMatD0=    1 NMtDS0=    0 NMtDT0=    0
         I1Cent=           4 NGrid=           0.
 Petite list used in FoFCou.
 Harris En= -40.0614344707986    
 Initial guess orbital symmetries:
       Occupied  (A1) (A1) (T2) (T2) (T2)
       Virtual   (T2) (T2) (T2) (A1)
 The electronic state of the initial guess is 1-A1.
 Leave Link  401 at Sat Aug 17 15:03:36 2024, MaxMem=   13107200 cpu:       0.2
 (Enter /programs/64bit/g09/g09-gfortran/bin/l502.exe)
 Closed shell SCF:
 Requested convergence on RMS density matrix=1.00D-08 within 128 cycles.
 Requested convergence on MAX density matrix=1.00D-06.
 Requested convergence on             energy=1.00D-06.
 No special actions if energy rises.
 Using DIIS extrapolation, IDIIS=  1040.
 Integral symmetry usage will be decided dynamically.
        40523 words used for storage of precomputed grid.
 Keep R1 ints in memory in canonical form, NReq=914941.
 IEnd=       60434 IEndB=       60434 NGot=    13107200 MDV=    13062806
 LenX=    13062806 LenY=    13061924
 Symmetry not used in FoFDir.
 MinBra= 0 MaxBra= 1 Meth= 1.
 IRaf=       0 NMat=   1 IRICut=       1 DoRegI=T DoRafI=F ISym2E= 0 JSym2E=0.
 Integral accuracy reduced to 1.0D-05 until final iterations.

 Cycle   1  Pass 0  IDiag  1:
 E= -40.0068664813007    
 DIIS: error= 3.98D-02 at cycle   1 NSaved=   1.
 NSaved= 1 IEnMin= 1 EnMin= -40.0068664813007     IErMin= 1 ErrMin= 3.98D-02
 ErrMax= 3.98D-02 EMaxC= 1.00D-01 BMatC= 2.56D-02 BMatP= 2.56D-02
 IDIUse=3 WtCom= 6.02D-01 WtEn= 3.98D-01
 Coeff-Com:  0.100D+01
 Coeff-En:   0.100D+01
 Coeff:      0.100D+01
 Gap=     0.817 Goal=   None    Shift=    0.000
 GapD=    0.817 DampG=2.000 DampE=0.500 DampFc=1.0000 IDamp=-1.
 RMSDP=4.04D-02 MaxDP=1.44D-01              OVMax= 0.00D+00

 Cycle   2  Pass 0  IDiag  1:
 E= -40.0184425470968     Delta-E=       -0.011576065796 Rises=F Damp=F
 DIIS: error= 3.15D-02 at cycle   2 NSaved=   2.
 NSaved= 2 IEnMin= 2 EnMin= -40.0184425470968     IErMin= 2 ErrMin= 3.15D-02
 ErrMax= 3.15D-02 EMaxC= 1.00D-01 BMatC= 1.65D-02 BMatP= 2.56D-02
 IDIUse=3 WtCom= 6.85D-01 WtEn= 3.15D-01
 Coeff-Com:  0.445D+00 0.555D+00
 Coeff-En:   0.374D+00 0.626D+00
 Coeff:      0.423D+00 0.577D+00
 Gap=     0.819 Goal=   None    Shift=    0.000
 RMSDP=1.87D-02 MaxDP=6.51D-02 DE=-1.16D-02 OVMax= 0.00D+00

 Cycle   3  Pass 0  IDiag  1:
 E= -40.0387790099250     Delta-E=       -0.020336462828 Rises=F Damp=F
 DIIS: error= 1.27D-03 at cycle   3 NSaved=   3.
 NSaved= 3 IEnMin= 3 EnMin= -40.0387790099250     IErMin= 3 ErrMin= 1.27D-03
 ErrMax= 1.27D-03 EMaxC= 1.00D-01 BMatC= 2.58D-05 BMatP= 1.65D-02
 IDIUse=3 WtCom= 9.87D-01 WtEn= 1.27D-02
 Coeff-Com: -0.236D-02 0.353D-01 0.967D+00
 Coeff-En:   0.000D+00 0.000D+00 0.100D+01
 Coeff:     -0.233D-02 0.349D-01 0.967D+00
 Gap=     0.823 Goal=   None    Shift=    0.000
 RMSDP=7.19D-04 MaxDP=2.41D-03 DE=-2.03D-02 OVMax= 0.00D+00

 Cycle   4  Pass 0  IDiag  1:
 E= -40.0388108877424     Delta-E=       -0.000031877817 Rises=F Damp=F
 DIIS: error= 1.40D-05 at cycle   4 NSaved=   4.
 NSaved= 4 IEnMin= 4 EnMin= -40.0388108877424     IErMin= 4 ErrMin= 1.40D-05
 ErrMax= 1.40D-05 EMaxC= 1.00D-01 BMatC= 3.34D-09 BMatP= 2.58D-05
 IDIUse=1 WtCom= 1.00D+00 WtEn= 0.00D+00
 Coeff-Com:  0.134D-03-0.293D-02-0.662D-01 0.107D+01
 Coeff:      0.134D-03-0.293D-02-0.662D-01 0.107D+01
 Gap=     0.823 Goal=   None    Shift=    0.000
 RMSDP=8.12D-06 MaxDP=4.24D-05 DE=-3.19D-05 OVMax= 0.00D+00

 Initial convergence to 1.0D-05 achieved.  Increase integral accuracy.
 Cycle   5  Pass 1  IDiag  1:
 E= -40.0387852363340     Delta-E=        0.000025651408 Rises=F Damp=F
 DIIS: error= 4.17D-06 at cycle   1 NSaved=   1.
 NSaved= 1 IEnMin= 1 EnMin= -40.0387852363340     IErMin= 1 ErrMin= 4.17D-06
 ErrMax= 4.17D-06 EMaxC= 1.00D-01 BMatC= 2.55D-10 BMatP= 2.55D-10
 IDIUse=1 WtCom= 1.00D+00 WtEn= 0.00D+00
 Coeff-Com:  0.100D+01
 Coeff:      0.100D+01
 Gap=     0.823 Goal=   None    Shift=    0.000
 RMSDP=8.12D-06 MaxDP=4.24D-05 DE= 2.57D-05 OVMax= 0.00D+00

 Cycle   6  Pass 1  IDiag  1:
 E= -40.0387852364516     Delta-E=       -0.000000000118 Rises=F Damp=F
 DIIS: error= 3.21D-06 at cycle   2 NSaved=   2.
 NSaved= 2 IEnMin= 2 EnMin= -40.0387852364516     IErMin= 2 ErrMin= 3.21D-06
 ErrMax= 3.21D-06 EMaxC= 1.00D-01 BMatC= 1.71D-10 BMatP= 2.55D-10
 IDIUse=1 WtCom= 1.00D+00 WtEn= 0.00D+00
 Coeff-Com:  0.450D+00 0.550D+00
 Coeff:      0.450D+00 0.550D+00
 Gap=     0.823 Goal=   None    Shift=    0.000
 RMSDP=1.82D-06 MaxDP=6.53D-06 DE=-1.18D-10 OVMax= 0.00D+00

 Cycle   7  Pass 1  IDiag  1:
 E= -40.0387852366610     Delta-E=       -0.000000000209 Rises=F Damp=F
 DIIS: error= 3.29D-08 at cycle   3 NSaved=   3.
 NSaved= 3 IEnMin= 3 EnMin= -40.0387852366610     IErMin= 3 ErrMin= 3.29D-08
 ErrMax= 3.29D-08 EMaxC= 1.00D-01 BMatC= 9.40D-15 BMatP= 1.71D-10
 IDIUse=1 WtCom= 1.00D+00 WtEn= 0.00D+00
 Coeff-Com: -0.948D-02-0.178D-01 0.103D+01
 Coeff:     -0.948D-02-0.178D-01 0.103D+01
 Gap=     0.823 Goal=   None    Shift=    0.000
 RMSDP=1.67D-08 MaxDP=1.25D-07 DE=-2.09D-10 OVMax= 0.00D+00

 Cycle   8  Pass 1  IDiag  1:
 E= -40.0387852366610     Delta-E=       -0.000000000000 Rises=F Damp=F
 DIIS: error= 1.40D-09 at cycle   4 NSaved=   4.
 NSaved= 4 IEnMin= 4 EnMin= -40.0387852366610     IErMin= 4 ErrMin= 1.40D-09
 ErrMax= 1.40D-09 EMaxC= 1.00D-01 BMatC= 1.43D-17 BMatP= 9.40D-15
 IDIUse=1 WtCom= 1.00D+00 WtEn= 0.00D+00
 Coeff-Com: -0.415D-04 0.696D-04-0.531D-01 0.105D+01
 Coeff:     -0.415D-04 0.696D-04-0.531D-01 0.105D+01
 Gap=     0.823 Goal=   None    Shift=    0.000
 RMSDP=7.81D-10 MaxDP=5.93D-09 DE=-1.42D-14 OVMax= 0.00D+00

 SCF Done:  E(RB3LYP) =  -40.0387852367     A.U. after    8 cycles
             Convg  =    0.7812D-09             -V/T =  2.0158
 KE= 3.941715906741D+01 PE=-1.188460593228D+02 EE= 2.595472582333D+01
 Leave Link  502 at Sat Aug 17 15:03:37 2024, MaxMem=   13107200 cpu:       0.4
 (Enter /programs/64bit/g09/g09-gfortran/bin/l601.exe)
 Copying SCF densities to generalized density rwf, IOpCl= 0 IROHF=0.

 **********************************************************************

            Population analysis using the SCF density.

 **********************************************************************

 Orbital symmetries:
       Occupied  (A1) (A1) (T2) (T2) (T2)
       Virtual   (T2) (T2) (T2) (A1)
 The electronic state is 1-A1.
 Alpha  occ. eigenvalues --   -9.99584  -0.66362  -0.36206  -0.36206  -0.36206
 Alpha virt. eigenvalues --    0.46068   0.46068   0.46068   0.49783
     Molecular Orbital Coefficients:
                           1         2         3         4         5
                        (A1)--O   (A1)--O   (T2)--O   (T2)--O   (T2)--O
     Eigenvalues --    -9.99584  -0.66362  -0.36206  -0.36206  -0.36206
   1 1   C  1S          0.99027  -0.22465   0.00000   0.00000   0.00000
   2        2S          0.04665   0.63460   0.00000   0.00000   0.00000
   3        2PX         0.00000   0.00000   0.00000   0.57872   0.00000
   4        2PY         0.00000   0.00000   0.57872   0.00000   0.00000
   5        2PZ         0.00000   0.00000   0.00000   0.00000   0.57872
   6 2   H  1S         -0.00928   0.17866   0.29732   0.29732   0.29732
   7 3   H  1S         -0.00928   0.17866  -0.29732  -0.29732   0.29732
   8 4   H  1S         -0.00928   0.17866   0.29732  -0.29732  -0.29732
   9 5   H  1S         -0.00928   0.17866  -0.29732   0.29732  -0.29732
                           6         7         8         9
                        (T2)--V   (T2)--V   (T2)--V   (A1)--V
     Eigenvalues --     0.46068   0.46068   0.46068   0.49783
   1 1   C  1S          0.00000   0.00000   0.00000  -0.25521
   2        2S          0.00000   0.00000   0.00000   1.61240
   3        2PX         0.00000   0.00000   1.09755   0.00000
   4        2PY         0.00000   1.09755   0.00000   0.00000
   5        2PZ         1.09755   0.00000   0.00000   0.00000
   6 2   H  1S         -0.61230  -0.61230  -0.61230  -0.66356
   7 3   H  1S         -0.61230   0.61230   0.61230  -0.66356
   8 4   H  1S          0.61230  -0.61230   0.61230  -0.66356
   9 5   H  1S          0.61230   0.61230  -0.61230  -0.66356
     Density Matrix:
                           1         2         3         4         5
   1 1   C  1S          2.06221
   2        2S         -0.19274   0.80978
   3        2PX         0.00000   0.00000   0.66982
   4        2PY         0.00000   0.00000   0.00000   0.66982
   5        2PZ         0.00000   0.00000   0.00000   0.00000   0.66982
   6 2   H  1S         -0.09865   0.22589   0.34412   0.34412   0.34412
   7 3   H  1S         -0.09865   0.22589  -0.34412  -0.34412   0.34412
   8 4   H  1S         -0.09865   0.22589  -0.34412   0.34412  -0.34412
   9 5   H  1S         -0.09865   0.22589   0.34412  -0.34412  -0.34412
                           6         7         8         9
   6 2   H  1S          0.59439
   7 3   H  1S         -0.11278   0.59439
   8 4   H  1S         -0.11278  -0.11278   0.59439
   9 5   H  1S         -0.11278  -0.11278  -0.11278   0.59439
    Full Mulliken population analysis:
                           1         2         3         4         5
   1 1   C  1S          2.06221
   2        2S         -0.04787   0.80978
   3        2PX         0.00000   0.00000   0.66982
   4        2PY         0.00000   0.00000   0.00000   0.66982
   5        2PZ         0.00000   0.00000   0.00000   0.00000   0.66982
   6 2   H  1S         -0.00614   0.11085   0.09284   0.09284   0.09284
   7 3   H  1S         -0.00614   0.11085   0.09284   0.09284   0.09284
   8 4   H  1S         -0.00614   0.11085   0.09284   0.09284   0.09284
   9 5   H  1S         -0.00614   0.11085   0.09284   0.09284   0.09284
                           6         7         8         9
   6 2   H  1S          0.59439
   7 3   H  1S         -0.01909   0.59439
   8 4   H  1S         -0.01909  -0.01909   0.59439
   9 5   H  1S         -0.01909  -0.01909  -0.01909   0.59439
     Gross orbital populations:
                           1
   1 1   C  1S          1.98977
   2        2S          1.20533
   3        2PX         1.04117
   4        2PY         1.04117
   5        2PZ         1.04117
   6 2   H  1S          0.92035
   7 3   H  1S          0.92035
   8 4   H  1S          0.92035
   9 5   H  1S          0.92035
          Condensed to atoms (all electrons):
              1          2          3          4          5
     1  C    4.785717   0.383225   0.383225   0.383225   0.383225
     2  H    0.383225   0.594393  -0.019091  -0.019091  -0.019091
     3  H    0.383225  -0.019091   0.594393  -0.019091  -0.019091
     4  H    0.383225  -0.019091  -0.019091   0.594393  -0.019091
     5  H    0.383225  -0.019091  -0.019091  -0.019091   0.594393
 Mulliken atomic charges:
              1
     1  C   -0.318618
     2  H    0.079655
     3  H    0.079655
     4  H    0.079655
     5  H    0.079655
 Sum of Mulliken atomic charges =   0.00000
 Mulliken charges with hydrogens summed into heavy atoms:
              1
     1  C    0.000000
 Sum of Mulliken charges with hydrogens summed into heavy atoms =   0.00000
 Electronic spatial extent (au):  <R**2>=             34.2284
 Charge=              0.0000 electrons
 Dipole moment (field-independent basis, Debye):
    X=              0.0000    Y=             -0.0000    Z=             -0.0000  Tot=              0.0000
 Quadrupole moment (field-independent basis, Debye-Ang):
   XX=             -7.7372   YY=             -7.7372   ZZ=             -7.7372
   XY=             -0.0000   XZ=             -0.0000   YZ=              0.0000
 Traceless Quadrupole moment (field-independent basis, Debye-Ang):
   XX=             -0.0000   YY=              0.0000   ZZ=              0.0000
   XY=             -0.0000   XZ=             -0.0000   YZ=              0.0000
 Octapole moment (field-independent basis, Debye-Ang**2):
  XXX=             -0.0000  YYY=             -0.0000  ZZZ=              0.0000  XYY=              0.0000
  XXY=              0.0000  XXZ=              0.0000  XZZ=              0.0000  YZZ=             -0.0000
  YYZ=             -0.0000  XYZ=              0.6659
 Hexadecapole moment (field-independent basis, Debye-Ang**3):
 XXXX=            -13.6264 YYYY=            -13.6264 ZZZZ=            -13.6264 XXXY=             -0.0000
 XXXZ=             -0.0000 YYYX=             -0.0000 YYYZ=             -0.0000 ZZZX=             -0.0000
 ZZZY=             -0.0000 XXYY=             -4.1227 XXZZ=             -4.1227 YYZZ=             -4.1227
 XXYZ=             -0.0000 YYXZ=             -0.0000 ZZXY=             -0.0000
 N-N= 1.343538919541D+01 E-N=-1.188460593343D+02  KE= 3.941715906741D+01
 Symmetry A    KE= 3.357811044898D+01
 Symmetry B1   KE= 1.946349539476D+00
 Symmetry B2   KE= 1.946349539476D+00
 Symmetry B3   KE= 1.946349539476D+00
 Orbital energies and kinetic energies (alpha):
                                 1                 2
   1         (A1)--O          -9.995843         15.577173
   2         (A1)--O          -0.663618          1.211883
   3         (T2)--O          -0.362065          0.973175
   4         (T2)--O          -0.362065          0.973175
   5         (T2)--O          -0.362065          0.973175
   6         (T2)--V           0.460677          2.117530
   7         (T2)--V           0.460677          2.117530
   8         (T2)--V           0.460677          2.117530
   9         (A1)--V           0.497827          2.713754
 Total kinetic energy from orbitals= 3.941715906741D+01
 No NMR shielding tensors so no spin-rotation constants.
 Leave Link  601 at Sat Aug 17 15:03:37 2024, MaxMem=   13107200 cpu:       0.1
 (Enter /programs/64bit/g09/g09-gfortran/bin/l701.exe)
 Compute integral first derivatives.
 ... and contract with generalized density number  0.
 Leave Link  701 at Sat Aug 17 15:03:37 2024, MaxMem=   13107200 cpu:       0.1
 (Enter /programs/64bit/g09/g09-gfortran/bin/l702.exe)
 L702 exits ... SP integral derivatives will be done elsewhere.
 Leave Link  702 at Sat Aug 17 15:03:37 2024, MaxMem=   13107200 cpu:       0.0
 (Enter /programs/64bit/g09/g09-gfortran/bin/l703.exe)
 Compute integral first derivatives, UseDBF=F ICtDFT=           0.
 Integral derivatives from FoFDir, PRISM(SPDF).
 Calling FoFJK, ICntrl=      2127 FMM=F ISym2X=1 I1Cent= 0 IOpClX= 0 NMat=1 NMatS=1 NMatT=0.
 FoFCou: FMM=F IPFlag=           0 FMFlag=      100000 FMFlg1=         800
         NFxFlg=           0 DoJE=F BraDBF=F KetDBF=F FulRan=T
         Omega=  0.000000  0.000000  1.000000  0.000000  0.000000 ICntrl=    2127 IOpCl=  0
         NMat0=    1 NMatS0=    1 NMatT0=    0 NMatD0=    1 NMtDS0=    0 NMtDT0=    0
         I1Cent=           0 NGrid=           0.
 Petite list used in FoFCou.
 Leave Link  703 at Sat Aug 17 15:03:37 2024, MaxMem=   13107200 cpu:       0.2
 (Enter /programs/64bit/g09/g09-gfortran/bin/l716.exe)
 Dipole        = 2.22044605D-16-2.22044605D-16-2.22044605D-16
 ***** Axes restored to original set *****
 -------------------------------------------------------------------
 Center     Atomic                   Forces (Hartrees/Bohr)
 Number     Number              X              Y              Z
 -------------------------------------------------------------------
      1        6          -0.000000000   -0.000000000   -0.000000000
      2        1          -0.000000000    0.000000000    0.005414968
      3        1           0.005105281   -0.000000000   -0.001804989
      4        1          -0.002552640   -0.004421303   -0.001804989
      5        1          -0.002552640    0.004421303   -0.001804989
 -------------------------------------------------------------------
 Cartesian Forces:  Max     0.005414968 RMS     0.002796277
 Leave Link  716 at Sat Aug 17 15:03:37 2024, MaxMem=   13107200 cpu:       0.0
 (Enter /programs/64bit/g09/g09-gfortran/bin/l103.exe)

 GradGradGradGradGradGradGradGradGradGradGradGradGradGradGradGradGradGrad
 Berny optimization.
 Internal  Forces:  Max     0.005414968 RMS     0.002894422
 Search for a local minimum.
 Step number   1 out of a maximum of   24
 All quantities printed in internal units (Hartrees-Bohrs-Radians)
 RMS Force = .28944D-02 SwitMx=.10000D-02 MixMth= 1
 Mixed Optimization -- RFO/linear search
 Second derivative matrix not updated -- first step.
 The second derivative matrix:
                          R1        R2        R3        R4        A1
           R1           0.34813
           R2           0.00000   0.34813
           R3           0.00000   0.00000   0.34813
           R4           0.00000   0.00000   0.00000   0.34813
           A1           0.00000   0.00000   0.00000   0.00000   0.16000
           A2           0.00000   0.00000   0.00000   0.00000   0.00000
           A3           0.00000   0.00000   0.00000   0.00000   0.00000
           A4           0.00000   0.00000   0.00000   0.00000   0.00000
           A5           0.00000   0.00000   0.00000   0.00000   0.00000
           A6           0.00000   0.00000   0.00000   0.00000   0.00000
           D1           0.00000   0.00000   0.00000   0.00000   0.00000
           D2           0.00000   0.00000   0.00000   0.00000   0.00000
           D3           0.00000   0.00000   0.00000   0.00000   0.00000
           D4           0.00000   0.00000   0.00000   0.00000   0.00000
                          A2        A3        A4        A5        A6
           A2           0.16000
           A3           0.00000   0.16000
           A4           0.00000   0.00000   0.16000
           A5           0.00000   0.00000   0.00000   0.16000
           A6           0.00000   0.00000   0.00000   0.00000   0.16000
           D1           0.00000   0.00000   0.00000   0.00000   0.00000
           D2           0.00000   0.00000   0.00000   0.00000   0.00000
           D3           0.00000   0.00000   0.00000   0.00000   0.00000
           D4           0.00000   0.00000   0.00000   0.00000   0.00000
                          D1        D2        D3        D4
           D1           0.00235
           D2           0.00000   0.00235
           D3           0.00000   0.00000   0.00235
           D4           0.00000   0.00000   0.00000   0.00235
     Eigenvalues ---    0.05086   0.05718   0.08643   0.16000   0.16000
     Eigenvalues ---    0.34813   0.34813   0.34813   0.348131000.00000
     Eigenvalues --- 1000.000001000.000001000.000001000.00000
 RFO step:  Lambda=-3.36584983D-04 EMin= 5.08565158D-02
 Linear search not attempted -- first point.
 Iteration  1 RMS(Cart)=  0.00830625 RMS(Int)=  0.00000000
 Iteration  2 RMS(Cart)=  0.00000000 RMS(Int)=  0.00000000
 ClnCor:  largest displacement from symmetrization is 3.44D-14 for atom     4.
 Variable       Old X    -DE/DX   Delta X   Delta X   Delta X     New X
                                 (Linear)    (Quad)   (Total)
    R1        2.05980   0.00541   0.00000   0.01554   0.01554   2.07534
    R2        2.05980   0.00541   0.00000   0.01554   0.01554   2.07534
    R3        2.05980   0.00541   0.00000   0.01554   0.01554   2.07534
    R4        2.05980   0.00541   0.00000   0.01554   0.01554   2.07534
    A1        1.91063   0.00000   0.00000   0.00000   0.00000   1.91063
    A2        1.91063  -0.00000   0.00000  -0.00000  -0.00000   1.91063
    A3        1.91063  -0.00000   0.00000  -0.00000   0.00000   1.91063
    A4        1.91063  -0.00000   0.00000  -0.00000   0.00000   1.91063
    A5        1.91063   0.00000   0.00000  -0.00000   0.00000   1.91063
    A6        1.91063   0.00000   0.00000   0.00000   0.00000   1.91063
    D1       -2.09440  -0.00000   0.00000  -0.00000   0.00000  -2.09440
    D2        2.09440   0.00000   0.00000   0.00000   0.00000   2.09440
    D3       -2.09440   0.00000   0.00000   0.00000   0.00000  -2.09440
    D4        2.09440  -0.00000   0.00000  -0.00000   0.00000   2.09440
         Item               Value     Threshold  Converged?
 Maximum Force            0.005415     0.000450     NO 
 RMS     Force            0.002894     0.000300     NO 
 Maximum Displacement     0.015540     0.001800     NO 
 RMS     Displacement     0.008306     0.001200     NO 
 Predicted change in Energy=-1.684552D-04
 GradGradGradGradGradGradGradGradGradGradGradGradGradGradGradGradGradGrad

 Leave Link  103 at Sat Aug 17 15:03:37 2024, MaxMem=   13107200 cpu:       0.0
 (Enter /programs/64bit/g09/g09-gfortran/bin/l202.exe)
                          Input orientation:                          
 ---------------------------------------------------------------------
 Center     Atomic      Atomic             Coordinates (Angstroms)
 Number     Number       Type             X           Y           Z
 ---------------------------------------------------------------------
      1          6           0        0.000000   -0.000000   -0.000000
      2          1           0        0.000000   -0.000000    1.098223
      3          1           0        1.035415   -0.000000   -0.366074
      4          1           0       -0.517707   -0.896695   -0.366074
      5          1           0       -0.517707    0.896695   -0.366074
 ---------------------------------------------------------------------
                    Distance matrix (angstroms):
                    1          2          3          4          5
     1  C    0.000000
     2  H    1.098223   0.000000
     3  H    1.098223   1.793391   0.000000
     4  H    1.098223   1.793391   1.793391   0.000000
     5  H    1.098223   1.793391   1.793391   1.793391   0.000000
 Stoichiometry    CH4
 Framework group  TD[O(C),4C3(H)]
 Deg. of freedom     1
 Prev. full point group           TD      NOp  24
 Prev. largest Abelian subgroup   D2      NOp   4
       concise Abelian subgroup   D2      NOp   4
                   Standard orientation:
 ---------------------------------------------------------------------
 Center     Atomic                     Coordinates (Angstroms)
 Number     Number                        X           Y           Z
 ---------------------------------------------------------------------
      1          6                    0.000000    0.000000    0.000000
      2          1                    0.735982    0.635317    0.510682
      3          1                   -0.449489   -0.693483    0.723281
      4          1                   -0.784876    0.629868   -0.439692
      5          1                    0.498382   -0.571702   -0.794270
 ---------------------------------------------------------------------
 TstSym:  Max error for IOp=  4 IAt=    5 Err= 6.70D-01
 TstSym:  IOp= 25 I=    6 IP=    4 Err= 6.70D-01
  CI=  0.000000000000D+00  0.000000000000D+00  0.000000000000D+00
   T= -9.418064271215D-01  1.080361124567D+00 -1.500953372918D+00
 CIP= -1.483200952450D+00  1.190278962756D+00 -8.308979833824D-01
 Unable to use previous symmetry information.  Redetermining point group.
 No symmetry information on checkpoint file.  Reassigning symmetry.
 Symm:  InNGrp=TD   InAxis=0.
 Stoichiometry    CH4
 Framework group  TD[O(C),4C3(H)]
 Deg. of freedom     1
 Full point group                 TD      NOp  24
 Largest Abelian subgroup         D2      NOp   4
 Largest concise Abelian subgroup D2      NOp   4
                         Standard orientation:                         
 ---------------------------------------------------------------------
 Center     Atomic      Atomic             Coordinates (Angstroms)
 Number     Number       Type             X           Y           Z
 ---------------------------------------------------------------------
      1          6           0        0.000000    0.000000    0.000000
      2          1           0        0.634059    0.634059    0.634059
      3          1           0       -0.634059   -0.634059    0.634059
      4          1           0       -0.634059    0.634059   -0.634059
      5          1           0        0.634059   -0.634059   -0.634059
 ---------------------------------------------------------------------
 Rotational constants (GHZ):    155.9129180    155.9129180    155.9129180
 Leave Link  202 at Sat Aug 17 15:03:38 2024, MaxMem=   13107200 cpu:       0.0
 (Enter /programs/64bit/g09/g09-gfortran/bin/l301.exe)
 Standard basis: STO-3G (5D, 7F)
 Ernie: Thresh=  0.10000D-02 Tol=  0.10000D-05 Strict=F.
 There are     3 symmetry adapted basis functions of A   symmetry.
 There are     2 symmetry adapted basis functions of B1  symmetry.
 There are     2 symmetry adapted basis functions of B2  symmetry.
 There are     2 symmetry adapted basis functions of B3  symmetry.
 Integral buffers will be    131072 words long.
 Raffenetti 2 integral format.
 Two-electron integral symmetry is turned on.
     9 basis functions,    27 primitive gaussians,     9 cartesian basis functions
     5 alpha electrons        5 beta electrons
       nuclear repulsion energy        13.3347887197 Hartrees.
 IExCor=  402 DFT=T Ex+Corr=B3LYP ExCW=0 ScaHFX=  0.200000
 ScaDFX=  0.800000  0.720000  1.000000  0.810000 ScalE2=  1.000000  1.000000
 IRadAn=      0 IRanWt=     -1 IRanGd=            0 ICorTp=0
 NAtoms=    5 NActive=    5 NUniq=    2 SFac= 3.00D+00 NAtFMM=   80 NAOKFM=F Big=F
 Leave Link  301 at Sat Aug 17 15:03:38 2024, MaxMem=   13107200 cpu:       0.1
 (Enter /programs/64bit/g09/g09-gfortran/bin/l302.exe)
 NPDir=0 NMtPBC=     1 NCelOv=     1 NCel=       1 NClECP=     1 NCelD=      1
         NCelK=      1 NCelE2=     1 NClLst=     1 CellRange=     0.0.
 One-electron integrals computed using PRISM.
 One-electron integral symmetry used in STVInt
 NBasis=     9 RedAO= T  NBF=     3     2     2     2
 NBsUse=     9 1.00D-06 NBFU=     3     2     2     2
 Precomputing XC quadrature grid using
 IXCGrd= 2 IRadAn=           0 IRanWt=          -1 IRanGd=           0 AccXCQ= 1.00D-10.
 NRdTot=     303 NPtTot=       38382 NUsed=       40581 NTot=       40613
 NSgBfM=     9     9     9     9     9 NAtAll=     5     5.
 Leave Link  302 at Sat Aug 17 15:03:38 2024, MaxMem=   13107200 cpu:       0.1
 (Enter /programs/64bit/g09/g09-gfortran/bin/l303.exe)
 DipDrv:  MaxL=1.
 Leave Link  303 at Sat Aug 17 15:03:38 2024, MaxMem=   13107200 cpu:       0.0
 (Enter /programs/64bit/g09/g09-gfortran/bin/l401.exe)
 Initial guess read from the read-write file.
 B after Tr=     0.000000    0.000000    0.000000
         Rot=    1.000000    0.000000    0.000000    0.000000 Ang=   0.00 deg.
 Guess basis will be translated and rotated to current coordinates.
 Initial guess orbital symmetries:
       Occupied  (A1) (A1) (T2) (T2) (T2)
       Virtual   (T2) (T2) (T2) (A1)
 The electronic state of the initial guess is 1-A1.
 Leave Link  401 at Sat Aug 17 15:03:38 2024, MaxMem=   13107200 cpu:       0.1
 (Enter /programs/64bit/g09/g09-gfortran/bin/l502.exe)
 Closed shell SCF:
 Requested convergence on RMS density matrix=1.00D-08 within 128 cycles.
 Requested convergence on MAX density matrix=1.00D-06.
 Requested convergence on             energy=1.00D-06.
 No special actions if energy rises.
 Using DIIS extrapolation, IDIIS=  1040.
 Integral symmetry usage will be decided dynamically.
        40523 words used for storage of precomputed grid.
 Keep R1 ints in memory in canonical form, NReq=914941.
 IEnd=       60434 IEndB=       60434 NGot=    13107200 MDV=    13062806
 LenX=    13062806 LenY=    13061924
 Symmetry not used in FoFDir.
 MinBra= 0 MaxBra= 1 Meth= 1.
 IRaf=       0 NMat=   1 IRICut=       1 DoRegI=T DoRafI=F ISym2E= 0 JSym2E=0.

 Cycle   1  Pass 1  IDiag  1:
 E= -40.0389066002222    
 DIIS: error= 8.97D-04 at cycle   1 NSaved=   1.
 NSaved= 1 IEnMin= 1 EnMin= -40.0389066002222     IErMin= 1 ErrMin= 8.97D-04
 ErrMax= 8.97D-04 EMaxC= 1.00D-01 BMatC= 1.24D-05 BMatP= 1.24D-05
 IDIUse=3 WtCom= 9.91D-01 WtEn= 8.97D-03
 Coeff-Com:  0.100D+01
 Coeff-En:   0.100D+01
 Coeff:      0.100D+01
 Gap=     0.814 Goal=   None    Shift=    0.000
 RMSDP=6.96D-04 MaxDP=2.36D-03              OVMax= 0.00D+00

 Cycle   2  Pass 1  IDiag  1:
 E= -40.0389139333384     Delta-E=       -0.000007333116 Rises=F Damp=F
 DIIS: error= 4.86D-04 at cycle   2 NSaved=   2.
 NSaved= 2 IEnMin= 2 EnMin= -40.0389139333384     IErMin= 2 ErrMin= 4.86D-04
 ErrMax= 4.86D-04 EMaxC= 1.00D-01 BMatC= 4.11D-06 BMatP= 1.24D-05
 IDIUse=3 WtCom= 9.95D-01 WtEn= 4.86D-03
 Coeff-Com:  0.330D+00 0.670D+00
 Coeff-En:   0.161D+00 0.839D+00
 Coeff:      0.330D+00 0.670D+00
 Gap=     0.814 Goal=   None    Shift=    0.000
 RMSDP=3.44D-04 MaxDP=1.32D-03 DE=-7.33D-06 OVMax= 0.00D+00

 Cycle   3  Pass 1  IDiag  1:
 E= -40.0389186980598     Delta-E=       -0.000004764721 Rises=F Damp=F
 DIIS: error= 1.14D-04 at cycle   3 NSaved=   3.
 NSaved= 3 IEnMin= 3 EnMin= -40.0389186980598     IErMin= 3 ErrMin= 1.14D-04
 ErrMax= 1.14D-04 EMaxC= 1.00D-01 BMatC= 1.97D-07 BMatP= 4.11D-06
 IDIUse=3 WtCom= 9.99D-01 WtEn= 1.14D-03
 Coeff-Com: -0.589D-02 0.175D+00 0.831D+00
 Coeff-En:   0.000D+00 0.000D+00 0.100D+01
 Coeff:     -0.588D-02 0.175D+00 0.831D+00
 Gap=     0.814 Goal=   None    Shift=    0.000
 RMSDP=6.30D-05 MaxDP=2.02D-04 DE=-4.76D-06 OVMax= 0.00D+00

 Cycle   4  Pass 1  IDiag  1:
 E= -40.0389189467248     Delta-E=       -0.000000248665 Rises=F Damp=F
 DIIS: error= 1.72D-06 at cycle   4 NSaved=   4.
 NSaved= 4 IEnMin= 4 EnMin= -40.0389189467248     IErMin= 4 ErrMin= 1.72D-06
 ErrMax= 1.72D-06 EMaxC= 1.00D-01 BMatC= 2.70D-11 BMatP= 1.97D-07
 IDIUse=1 WtCom= 1.00D+00 WtEn= 0.00D+00
 Coeff-Com: -0.406D-04-0.127D-01-0.475D-01 0.106D+01
 Coeff:     -0.406D-04-0.127D-01-0.475D-01 0.106D+01
 Gap=     0.814 Goal=   None    Shift=    0.000
 RMSDP=9.36D-07 MaxDP=6.97D-06 DE=-2.49D-07 OVMax= 0.00D+00

 Cycle   5  Pass 1  IDiag  1:
 E= -40.0389189467606     Delta-E=       -0.000000000036 Rises=F Damp=F
 DIIS: error= 1.29D-10 at cycle   5 NSaved=   5.
 NSaved= 5 IEnMin= 5 EnMin= -40.0389189467606     IErMin= 5 ErrMin= 1.29D-10
 ErrMax= 1.29D-10 EMaxC= 1.00D-01 BMatC= 2.67D-19 BMatP= 2.70D-11
 IDIUse=1 WtCom= 1.00D+00 WtEn= 0.00D+00
 Coeff-Com:  0.499D-07-0.547D-06-0.149D-05 0.115D-04 0.100D+01
 Coeff:      0.499D-07-0.547D-06-0.149D-05 0.115D-04 0.100D+01
 Gap=     0.814 Goal=   None    Shift=    0.000
 RMSDP=7.11D-11 MaxDP=2.67D-10 DE=-3.58D-11 OVMax= 0.00D+00

 SCF Done:  E(RB3LYP) =  -40.0389189468     A.U. after    5 cycles
             Convg  =    0.7112D-10             -V/T =  2.0164
 KE= 3.939356220919D+01 PE=-1.186468322598D+02 EE= 2.587956238415D+01
 Leave Link  502 at Sat Aug 17 15:03:38 2024, MaxMem=   13107200 cpu:       0.4
 (Enter /programs/64bit/g09/g09-gfortran/bin/l701.exe)
 Compute integral first derivatives.
 ... and contract with generalized density number  0.
 Leave Link  701 at Sat Aug 17 15:03:39 2024, MaxMem=   13107200 cpu:       0.1
 (Enter /programs/64bit/g09/g09-gfortran/bin/l702.exe)
 L702 exits ... SP integral derivatives will be done elsewhere.
 Leave Link  702 at Sat Aug 17 15:03:39 2024, MaxMem=   13107200 cpu:       0.0
 (Enter /programs/64bit/g09/g09-gfortran/bin/l703.exe)
 Compute integral first derivatives, UseDBF=F ICtDFT=           0.
 Integral derivatives from FoFDir, PRISM(SPDF).
 Calling FoFJK, ICntrl=      2127 FMM=F ISym2X=1 I1Cent= 0 IOpClX= 0 NMat=1 NMatS=1 NMatT=0.
 FoFCou: FMM=F IPFlag=           0 FMFlag=      100000 FMFlg1=         800
         NFxFlg=           0 DoJE=F BraDBF=F KetDBF=F FulRan=T
         Omega=  0.000000  0.000000  1.000000  0.000000  0.000000 ICntrl=    2127 IOpCl=  0
         NMat0=    1 NMatS0=    1 NMatT0=    0 NMatD0=    1 NMtDS0=    0 NMtDT0=    0
         I1Cent=           0 NGrid=           0.
 Petite list used in FoFCou.
 Leave Link  703 at Sat Aug 17 15:03:39 2024, MaxMem=   13107200 cpu:       0.2
 (Enter /programs/64bit/g09/g09-gfortran/bin/l716.exe)
 Dipole        = 4.44089210D-16 6.66133815D-16-2.22044605D-16
 ***** Axes restored to original set *****
 -------------------------------------------------------------------
 Center     Atomic                   Forces (Hartrees/Bohr)
 Number     Number              X              Y              Z
 -------------------------------------------------------------------
      1        6          -0.000000000   -0.000000000    0.000000000
      2        1           0.000000000    0.000000000   -0.001067407
      3        1          -0.001006361    0.000000000    0.000355802
      4        1           0.000503181    0.000871534    0.000355802
      5        1           0.000503181   -0.000871534    0.000355802
 -------------------------------------------------------------------
 Cartesian Forces:  Max     0.001067407 RMS     0.000551207
 Leave Link  716 at Sat Aug 17 15:03:39 2024, MaxMem=   13107200 cpu:       0.0
 (Enter /programs/64bit/g09/g09-gfortran/bin/l103.exe)

 GradGradGradGradGradGradGradGradGradGradGradGradGradGradGradGradGradGrad
 Berny optimization.
 Using GEDIIS/GDIIS optimizer.
 Internal  Forces:  Max     0.001067407 RMS     0.000570553
 Search for a local minimum.
 Step number   2 out of a maximum of   24
 All quantities printed in internal units (Hartrees-Bohrs-Radians)
 RMS Force = .57055D-03 SwitMx=.10000D-02 MixMth= 2
 Mixed Optimization -- En-DIIS/RFO-DIIS
 Update second derivatives using D2CorX and points    1    2
 DE= -1.34D-04 DEPred=-1.68D-04 R= 7.94D-01
 SS=  1.41D+00  RLast= 3.11D-02 DXNew= 5.0454D-01 9.3237D-02
 Trust test= 7.94D-01 RLast= 3.11D-02 DXMaxT set to 3.00D-01
 The second derivative matrix:
                          R1        R2        R3        R4        A1
           R1           0.36538
           R2           0.01726   0.36538
           R3           0.01726   0.01726   0.36538
           R4           0.01726   0.01726   0.01726   0.36538
           A1           0.00000   0.00000   0.00000   0.00000   0.16000
           A2          -0.00000  -0.00000  -0.00000  -0.00000  -0.00000
           A3          -0.00000  -0.00000  -0.00000  -0.00000  -0.00000
           A4          -0.00000  -0.00000  -0.00000  -0.00000  -0.00000
           A5           0.00000   0.00000   0.00000   0.00000   0.00000
           A6           0.00000   0.00000   0.00000   0.00000   0.00000
           D1          -0.00000  -0.00000  -0.00000  -0.00000  -0.00000
           D2           0.00000   0.00000   0.00000   0.00000   0.00000
           D3           0.00000   0.00000   0.00000   0.00000   0.00000
           D4          -0.00000  -0.00000  -0.00000  -0.00000  -0.00000
                          A2        A3        A4        A5        A6
           A2           0.16000
           A3           0.00000   0.16000
           A4           0.00000   0.00000   0.16000
           A5          -0.00000  -0.00000  -0.00000   0.16000
           A6          -0.00000  -0.00000  -0.00000   0.00000   0.16000
           D1           0.00000   0.00000   0.00000  -0.00000  -0.00000
           D2          -0.00000  -0.00000  -0.00000   0.00000   0.00000
           D3          -0.00000  -0.00000  -0.00000   0.00000   0.00000
           D4           0.00000   0.00000   0.00000  -0.00000  -0.00000
                          D1        D2        D3        D4
           D1           0.00235
           D2          -0.00000   0.00235
           D3          -0.00000   0.00000   0.00235
           D4           0.00000  -0.00000  -0.00000   0.00235
 Use linear search instead of GDIIS.
     Eigenvalues ---    0.05086   0.05718   0.08643   0.16000   0.16000
     Eigenvalues ---    0.34813   0.34813   0.34813   0.417151000.00000
     Eigenvalues --- 1000.000001000.000001000.000001000.00000
 RFO step:  Lambda= 0.00000000D+00 EMin= 5.08565158D-02
 Quartic linear search produced a step of -0.16758.
 Iteration  1 RMS(Cart)=  0.00139198 RMS(Int)=  0.00000000
 Iteration  2 RMS(Cart)=  0.00000000 RMS(Int)=  0.00000000
 ClnCor:  largest displacement from symmetrization is 7.55D-15 for atom     2.
 Variable       Old X    -DE/DX   Delta X   Delta X   Delta X     New X
                                 (Linear)    (Quad)   (Total)
    R1        2.07534  -0.00107  -0.00260  -0.00000  -0.00260   2.07274
    R2        2.07534  -0.00107  -0.00260   0.00000  -0.00260   2.07274
    R3        2.07534  -0.00107  -0.00260  -0.00000  -0.00260   2.07274
    R4        2.07534  -0.00107  -0.00260   0.00000  -0.00260   2.07274
    A1        1.91063  -0.00000  -0.00000  -0.00000   0.00000   1.91063
    A2        1.91063   0.00000   0.00000   0.00000   0.00000   1.91063
    A3        1.91063  -0.00000   0.00000  -0.00000   0.00000   1.91063
    A4        1.91063  -0.00000   0.00000  -0.00000   0.00000   1.91063
    A5        1.91063   0.00000   0.00000  -0.00000  -0.00000   1.91063
    A6        1.91063  -0.00000  -0.00000   0.00000   0.00000   1.91063
    D1       -2.09440  -0.00000   0.00000  -0.00000   0.00000  -2.09440
    D2        2.09440  -0.00000  -0.00000  -0.00000   0.00000   2.09440
    D3       -2.09440  -0.00000  -0.00000  -0.00000   0.00000  -2.09440
    D4        2.09440   0.00000   0.00000  -0.00000   0.00000   2.09440
         Item               Value     Threshold  Converged?
 Maximum Force            0.001067     0.000450     NO 
 RMS     Force            0.000571     0.000300     NO 
 Maximum Displacement     0.002604     0.001800     NO 
 RMS     Displacement     0.001392     0.001200     NO 
 Predicted change in Energy=-5.460834D-06
 GradGradGradGradGradGradGradGradGradGradGradGradGradGradGradGradGradGrad

 Leave Link  103 at Sat Aug 17 15:03:39 2024, MaxMem=   13107200 cpu:       0.0
 (Enter /programs/64bit/g09/g09-gfortran/bin/l202.exe)
                          Input orientation:                          
 ---------------------------------------------------------------------
 Center     Atomic      Atomic             Coordinates (Angstroms)
 Number     Number       Type             X           Y           Z
 ---------------------------------------------------------------------
      1          6           0        0.000000   -0.000000   -0.000000
      2          1           0        0.000000    0.000000    1.096845
      3          1           0        1.034116   -0.000000   -0.365615
      4          1           0       -0.517058   -0.895570   -0.365615
      5          1           0       -0.517058    0.895570   -0.365615
 ---------------------------------------------------------------------
                    Distance matrix (angstroms):
                    1          2          3          4          5
     1  C    0.000000
     2  H    1.096845   0.000000
     3  H    1.096845   1.791141   0.000000
     4  H    1.096845   1.791141   1.791141   0.000000
     5  H    1.096845   1.791141   1.791141   1.791141   0.000000
 Stoichiometry    CH4
 Framework group  TD[O(C),4C3(H)]
 Deg. of freedom     1
 Prev. full point group           TD      NOp  24
 Prev. largest Abelian subgroup   D2      NOp   4
       concise Abelian subgroup   D2      NOp   4
                   Standard orientation:
 ---------------------------------------------------------------------
 Center     Atomic                     Coordinates (Angstroms)
 Number     Number                        X           Y           Z
 ---------------------------------------------------------------------
      1          6                    0.000000    0.000000    0.000000
      2          1                    0.954376    0.388523    0.375881
      3          1                   -0.631286   -0.299458    0.845501
      4          1                   -0.509786    0.779937   -0.578693
      5          1                    0.186696   -0.869003   -0.642688
 ---------------------------------------------------------------------
 TstSym:  Max error for IOp=  2 IAt=    5 Err= 1.45D+00
 TstSym:  IOp= 25 I=    6 IP=    4 Err= 1.45D+00
  CI=  0.000000000000D+00  0.000000000000D+00  0.000000000000D+00
   T=  3.528046692253D-01  1.642176762252D+00  1.214505108057D+00
 CIP= -9.633551425545D-01  1.473867833901D+00 -1.093571574297D+00
 Unable to use previous symmetry information.  Redetermining point group.
 No symmetry information on checkpoint file.  Reassigning symmetry.
 Symm:  InNGrp=TD   InAxis=0.
 Stoichiometry    CH4
 Framework group  TD[O(C),4C3(H)]
 Deg. of freedom     1
 Full point group                 TD      NOp  24
 Largest Abelian subgroup         D2      NOp   4
 Largest concise Abelian subgroup D2      NOp   4
                         Standard orientation:                         
 ---------------------------------------------------------------------
 Center     Atomic      Atomic             Coordinates (Angstroms)
 Number     Number       Type             X           Y           Z
 ---------------------------------------------------------------------
      1          6           0        0.000000    0.000000    0.000000
      2          1           0        0.633264    0.633264    0.633264
      3          1           0       -0.633264   -0.633264    0.633264
      4          1           0       -0.633264    0.633264   -0.633264
      5          1           0        0.633264   -0.633264   -0.633264
 ---------------------------------------------------------------------
 Rotational constants (GHZ):    156.3049367    156.3049367    156.3049367
 Leave Link  202 at Sat Aug 17 15:03:39 2024, MaxMem=   13107200 cpu:       0.0
 (Enter /programs/64bit/g09/g09-gfortran/bin/l301.exe)
 Standard basis: STO-3G (5D, 7F)
 Ernie: Thresh=  0.10000D-02 Tol=  0.10000D-05 Strict=F.
 There are     3 symmetry adapted basis functions of A   symmetry.
 There are     2 symmetry adapted basis functions of B1  symmetry.
 There are     2 symmetry adapted basis functions of B2  symmetry.
 There are     2 symmetry adapted basis functions of B3  symmetry.
 Integral buffers will be    131072 words long.
 Raffenetti 2 integral format.
 Two-electron integral symmetry is turned on.
     9 basis functions,    27 primitive gaussians,     9 cartesian basis functions
     5 alpha electrons        5 beta electrons
       nuclear repulsion energy        13.3515423208 Hartrees.
 IExCor=  402 DFT=T Ex+Corr=B3LYP ExCW=0 ScaHFX=  0.200000
 ScaDFX=  0.800000  0.720000  1.000000  0.810000 ScalE2=  1.000000  1.000000
 IRadAn=      0 IRanWt=     -1 IRanGd=            0 ICorTp=0
 NAtoms=    5 NActive=    5 NUniq=    2 SFac= 3.00D+00 NAtFMM=   80 NAOKFM=F Big=F
 Leave Link  301 at Sat Aug 17 15:03:39 2024, MaxMem=   13107200 cpu:       0.1
 (Enter /programs/64bit/g09/g09-gfortran/bin/l302.exe)
 NPDir=0 NMtPBC=     1 NCelOv=     1 NCel=       1 NClECP=     1 NCelD=      1
         NCelK=      1 NCelE2=     1 NClLst=     1 CellRange=     0.0.
 One-electron integrals computed using PRISM.
 One-electron integral symmetry used in STVInt
 NBasis=     9 RedAO= T  NBF=     3     2     2     2
 NBsUse=     9 1.00D-06 NBFU=     3     2     2     2
 Precomputing XC quadrature grid using
 IXCGrd= 2 IRadAn=           0 IRanWt=          -1 IRanGd=           0 AccXCQ= 1.00D-10.
 NRdTot=     303 NPtTot=       38382 NUsed=       40581 NTot=       40613
 NSgBfM=     9     9     9     9     9 NAtAll=     5     5.
 Leave Link  302 at Sat Aug 17 15:03:39 2024, MaxMem=   13107200 cpu:       0.1
 (Enter /programs/64bit/g09/g09-gfortran/bin/l303.exe)
 DipDrv:  MaxL=1.
 Leave Link  303 at Sat Aug 17 15:03:39 2024, MaxMem=   13107200 cpu:       0.0
 (Enter /programs/64bit/g09/g09-gfortran/bin/l401.exe)
 Initial guess read from the read-write file.
 B after Tr=     0.000000    0.000000    0.000000
         Rot=    1.000000    0.000000    0.000000    0.000000 Ang=   0.00 deg.
 Guess basis will be translated and rotated to current coordinates.
 Initial guess orbital symmetries:
       Occupied  (A1) (A1) (T2) (T2) (T2)
       Virtual   (T2) (T2) (T2) (A1)
 The electronic state of the initial guess is 1-A1.
 Leave Link  401 at Sat Aug 17 15:03:39 2024, MaxMem=   13107200 cpu:       0.1
 (Enter /programs/64bit/g09/g09-gfortran/bin/l502.exe)
 Closed shell SCF:
 Requested convergence on RMS density matrix=1.00D-08 within 128 cycles.
 Requested convergence on MAX density matrix=1.00D-06.
 Requested convergence on             energy=1.00D-06.
 No special actions if energy rises.
 Using DIIS extrapolation, IDIIS=  1040.
 Integral symmetry usage will be decided dynamically.
        40523 words used for storage of precomputed grid.
 Keep R1 ints in memory in canonical form, NReq=914941.
 IEnd=       60434 IEndB=       60434 NGot=    13107200 MDV=    13062806
 LenX=    13062806 LenY=    13061924
 Symmetry not used in FoFDir.
 MinBra= 0 MaxBra= 1 Meth= 1.
 IRaf=       0 NMat=   1 IRICut=       1 DoRegI=T DoRafI=F ISym2E= 0 JSym2E=0.

 Cycle   1  Pass 1  IDiag  1:
 E= -40.0389241728805    
 DIIS: error= 1.50D-04 at cycle   1 NSaved=   1.
 NSaved= 1 IEnMin= 1 EnMin= -40.0389241728805     IErMin= 1 ErrMin= 1.50D-04
 ErrMax= 1.50D-04 EMaxC= 1.00D-01 BMatC= 3.40D-07 BMatP= 3.40D-07
 IDIUse=3 WtCom= 9.99D-01 WtEn= 1.50D-03
 Coeff-Com:  0.100D+01
 Coeff-En:   0.100D+01
 Coeff:      0.100D+01
 Gap=     0.815 Goal=   None    Shift=    0.000
 RMSDP=1.15D-04 MaxDP=3.91D-04              OVMax= 0.00D+00

 Cycle   2  Pass 1  IDiag  1:
 E= -40.0389243765570     Delta-E=       -0.000000203677 Rises=F Damp=F
 DIIS: error= 8.00D-05 at cycle   2 NSaved=   2.
 NSaved= 2 IEnMin= 2 EnMin= -40.0389243765570     IErMin= 2 ErrMin= 8.00D-05
 ErrMax= 8.00D-05 EMaxC= 1.00D-01 BMatC= 1.12D-07 BMatP= 3.40D-07
 IDIUse=1 WtCom= 1.00D+00 WtEn= 0.00D+00
 Coeff-Com:  0.328D+00 0.672D+00
 Coeff:      0.328D+00 0.672D+00
 Gap=     0.815 Goal=   None    Shift=    0.000
 RMSDP=5.67D-05 MaxDP=2.17D-04 DE=-2.04D-07 OVMax= 0.00D+00

 Cycle   3  Pass 1  IDiag  1:
 E= -40.0389245057306     Delta-E=       -0.000000129174 Rises=F Damp=F
 DIIS: error= 1.89D-05 at cycle   3 NSaved=   3.
 NSaved= 3 IEnMin= 3 EnMin= -40.0389245057306     IErMin= 3 ErrMin= 1.89D-05
 ErrMax= 1.89D-05 EMaxC= 1.00D-01 BMatC= 5.36D-09 BMatP= 1.12D-07
 IDIUse=1 WtCom= 1.00D+00 WtEn= 0.00D+00
 Coeff-Com: -0.595D-02 0.175D+00 0.831D+00
 Coeff:     -0.595D-02 0.175D+00 0.831D+00
 Gap=     0.815 Goal=   None    Shift=    0.000
 RMSDP=1.04D-05 MaxDP=3.33D-05 DE=-1.29D-07 OVMax= 0.00D+00

 Cycle   4  Pass 1  IDiag  1:
 E= -40.0389245124986     Delta-E=       -0.000000006768 Rises=F Damp=F
 DIIS: error= 2.75D-07 at cycle   4 NSaved=   4.
 NSaved= 4 IEnMin= 4 EnMin= -40.0389245124986     IErMin= 4 ErrMin= 2.75D-07
 ErrMax= 2.75D-07 EMaxC= 1.00D-01 BMatC= 6.48D-13 BMatP= 5.36D-09
 IDIUse=1 WtCom= 1.00D+00 WtEn= 0.00D+00
 Coeff-Com: -0.412D-04-0.125D-01-0.475D-01 0.106D+01
 Coeff:     -0.412D-04-0.125D-01-0.475D-01 0.106D+01
 Gap=     0.815 Goal=   None    Shift=    0.000
 RMSDP=1.49D-07 MaxDP=1.12D-06 DE=-6.77D-09 OVMax= 0.00D+00

 Cycle   5  Pass 1  IDiag  1:
 E= -40.0389245124995     Delta-E=       -0.000000000001 Rises=F Damp=F
 DIIS: error= 3.41D-12 at cycle   5 NSaved=   5.
 NSaved= 5 IEnMin= 5 EnMin= -40.0389245124995     IErMin= 5 ErrMin= 3.41D-12
 ErrMax= 3.41D-12 EMaxC= 1.00D-01 BMatC= 1.85D-22 BMatP= 6.48D-13
 IDIUse=1 WtCom= 1.00D+00 WtEn= 0.00D+00
 Coeff-Com: -0.608D-08 0.698D-06 0.256D-05-0.536D-04 0.100D+01
 Coeff:     -0.608D-08 0.698D-06 0.256D-05-0.536D-04 0.100D+01
 Gap=     0.815 Goal=   None    Shift=    0.000
 RMSDP=1.87D-12 MaxDP=6.97D-12 DE=-8.88D-13 OVMax= 0.00D+00

 SCF Done:  E(RB3LYP) =  -40.0389245125     A.U. after    5 cycles
             Convg  =    0.1870D-11             -V/T =  2.0163
 KE= 3.939746036362D+01 PE=-1.186800397021D+02 EE= 2.589211250514D+01
 Leave Link  502 at Sat Aug 17 15:03:40 2024, MaxMem=   13107200 cpu:       0.4
 (Enter /programs/64bit/g09/g09-gfortran/bin/l701.exe)
 Compute integral first derivatives.
 ... and contract with generalized density number  0.
 Leave Link  701 at Sat Aug 17 15:03:40 2024, MaxMem=   13107200 cpu:       0.1
 (Enter /programs/64bit/g09/g09-gfortran/bin/l702.exe)
 L702 exits ... SP integral derivatives will be done elsewhere.
 Leave Link  702 at Sat Aug 17 15:03:40 2024, MaxMem=   13107200 cpu:       0.0
 (Enter /programs/64bit/g09/g09-gfortran/bin/l703.exe)
 Compute integral first derivatives, UseDBF=F ICtDFT=           0.
 Integral derivatives from FoFDir, PRISM(SPDF).
 Calling FoFJK, ICntrl=      2127 FMM=F ISym2X=1 I1Cent= 0 IOpClX= 0 NMat=1 NMatS=1 NMatT=0.
 FoFCou: FMM=F IPFlag=           0 FMFlag=      100000 FMFlg1=         800
         NFxFlg=           0 DoJE=F BraDBF=F KetDBF=F FulRan=T
         Omega=  0.000000  0.000000  1.000000  0.000000  0.000000 ICntrl=    2127 IOpCl=  0
         NMat0=    1 NMatS0=    1 NMatT0=    0 NMatD0=    1 NMtDS0=    0 NMtDT0=    0
         I1Cent=           0 NGrid=           0.
 Petite list used in FoFCou.
 Leave Link  703 at Sat Aug 17 15:03:40 2024, MaxMem=   13107200 cpu:       0.2
 (Enter /programs/64bit/g09/g09-gfortran/bin/l716.exe)
 Dipole        = 0.00000000D+00-2.22044605D-16 4.44089210D-16
 ***** Axes restored to original set *****
 -------------------------------------------------------------------
 Center     Atomic                   Forces (Hartrees/Bohr)
 Number     Number              X              Y              Z
 -------------------------------------------------------------------
      1        6           0.000000000   -0.000000000    0.000000000
      2        1           0.000000000   -0.000000000    0.000000032
      3        1           0.000000030   -0.000000000   -0.000000011
      4        1          -0.000000015   -0.000000026   -0.000000011
      5        1          -0.000000015    0.000000026   -0.000000011
 -------------------------------------------------------------------
 Cartesian Forces:  Max     0.000000032 RMS     0.000000017
 Leave Link  716 at Sat Aug 17 15:03:40 2024, MaxMem=   13107200 cpu:       0.0
 (Enter /programs/64bit/g09/g09-gfortran/bin/l103.exe)

 GradGradGradGradGradGradGradGradGradGradGradGradGradGradGradGradGradGrad
 Berny optimization.
 Using GEDIIS/GDIIS optimizer.
 Internal  Forces:  Max     0.000000032 RMS     0.000000017
 Search for a local minimum.
 Step number   3 out of a maximum of   24
 All quantities printed in internal units (Hartrees-Bohrs-Radians)
 RMS Force = .17282D-07 SwitMx=.10000D-02 MixMth= 2
 Mixed Optimization -- En-DIIS/RFO-DIIS
 Swaping is turned off.
 Update second derivatives using D2CorX and points    1    2    3
 DE= -5.57D-06 DEPred=-5.46D-06 R= 1.02D+00
 SS=  1.41D+00  RLast= 5.21D-03 DXNew= 5.0454D-01 1.5625D-02
 Trust test= 1.02D+00 RLast= 5.21D-03 DXMaxT set to 3.00D-01
 The second derivative matrix:
                          R1        R2        R3        R4        A1
           R1           0.36357
           R2           0.01544   0.36357
           R3           0.01544   0.01544   0.36357
           R4           0.01544   0.01544   0.01544   0.36357
           A1          -0.00000  -0.00000  -0.00000  -0.00000   0.16000
           A2          -0.00000  -0.00000  -0.00000  -0.00000   0.00000
           A3           0.00000   0.00000   0.00000   0.00000  -0.00000
           A4          -0.00000  -0.00000  -0.00000  -0.00000   0.00000
           A5           0.00000   0.00000   0.00000   0.00000  -0.00000
           A6          -0.00000  -0.00000  -0.00000  -0.00000   0.00000
           D1           0.00000   0.00000   0.00000   0.00000  -0.00000
           D2           0.00000   0.00000   0.00000   0.00000  -0.00000
           D3           0.00000   0.00000   0.00000   0.00000  -0.00000
           D4          -0.00000  -0.00000  -0.00000  -0.00000   0.00000
                          A2        A3        A4        A5        A6
           A2           0.16000
           A3          -0.00000   0.16000
           A4           0.00000  -0.00000   0.16000
           A5          -0.00000   0.00000  -0.00000   0.16000
           A6           0.00000  -0.00000   0.00000  -0.00000   0.16000
           D1          -0.00000   0.00000  -0.00000   0.00000  -0.00000
           D2          -0.00000   0.00000  -0.00000   0.00000  -0.00000
           D3          -0.00000   0.00000  -0.00000   0.00000  -0.00000
           D4           0.00000  -0.00000   0.00000  -0.00000   0.00000
                          D1        D2        D3        D4
           D1           0.00235
           D2           0.00000   0.00235
           D3           0.00000   0.00000   0.00235
           D4          -0.00000  -0.00000  -0.00000   0.00235
     Eigenvalues ---    0.05086   0.05718   0.08643   0.16000   0.16000
     Eigenvalues ---    0.34813   0.34813   0.34813   0.409901000.00000
     Eigenvalues --- 1000.000001000.000001000.000001000.00000
 En-DIIS/RFO-DIIS IScMMF=        0 using points:     3    2
 RFO step:  Lambda= 0.00000000D+00.
 Iteration  1 RMS(Cart)=  0.00000004 RMS(Int)=  0.00000000
 ClnCor:  largest displacement from symmetrization is 2.52D-14 for atom     5.
 Variable       Old X    -DE/DX   Delta X   Delta X   Delta X     New X
                                  (DIIS)     (GDIIS)  (Total)
    R1        2.07274   0.00000   0.00000   0.00000   0.00000   2.07274
    R2        2.07274   0.00000   0.00000   0.00000   0.00000   2.07274
    R3        2.07274   0.00000   0.00000   0.00000   0.00000   2.07274
    R4        2.07274   0.00000   0.00000   0.00000   0.00000   2.07274
    A1        1.91063  -0.00000   0.00000  -0.00000  -0.00000   1.91063
    A2        1.91063   0.00000   0.00000   0.00000   0.00000   1.91063
    A3        1.91063  -0.00000   0.00000   0.00000  -0.00000   1.91063
    A4        1.91063  -0.00000   0.00000  -0.00000   0.00000   1.91063
    A5        1.91063   0.00000   0.00000   0.00000   0.00000   1.91063
    A6        1.91063  -0.00000   0.00000  -0.00000  -0.00000   1.91063
    D1       -2.09440   0.00000   0.00000   0.00000   0.00000  -2.09440
    D2        2.09440  -0.00000   0.00000  -0.00000  -0.00000   2.09440
    D3       -2.09440  -0.00000   0.00000  -0.00000  -0.00000  -2.09440
    D4        2.09440  -0.00000   0.00000   0.00000  -0.00000   2.09440
         Item               Value     Threshold  Converged?
 Maximum Force            0.000000     0.000450     YES
 RMS     Force            0.000000     0.000300     YES
 Maximum Displacement     0.000000     0.001800     YES
 RMS     Displacement     0.000000     0.001200     YES
 Predicted change in Energy=-5.100208D-15
 Optimization completed.
    -- Stationary point found.
                           ----------------------------
                           !   Optimized Parameters   !
                           ! (Angstroms and Degrees)  !
 --------------------------                            --------------------------
 ! Name  Definition              Value          Derivative Info.                !
 --------------------------------------------------------------------------------
 ! R1    R(1,2)                  1.0968         -DE/DX =    0.0                 !
 ! R2    R(1,3)                  1.0968         -DE/DX =    0.0                 !
 ! R3    R(1,4)                  1.0968         -DE/DX =    0.0                 !
 ! R4    R(1,5)                  1.0968         -DE/DX =    0.0                 !
 ! A1    A(2,1,3)              109.4712         -DE/DX =    0.0                 !
 ! A2    A(2,1,4)              109.4712         -DE/DX =    0.0                 !
 ! A3    A(2,1,5)              109.4712         -DE/DX =    0.0                 !
 ! A4    A(3,1,4)              109.4712         -DE/DX =    0.0                 !
 ! A5    A(3,1,5)              109.4712         -DE/DX =    0.0                 !
 ! A6    A(4,1,5)              109.4712         -DE/DX =    0.0                 !
 ! D1    D(2,1,4,3)           -120.0            -DE/DX =    0.0                 !
 ! D2    D(2,1,5,3)            120.0            -DE/DX =    0.0                 !
 ! D3    D(2,1,5,4)           -120.0            -DE/DX =    0.0                 !
 ! D4    D(3,1,5,4)            120.0            -DE/DX =    0.0                 !
 --------------------------------------------------------------------------------
 GradGradGradGradGradGradGradGradGradGradGradGradGradGradGradGradGradGrad

 Largest change from initial coordinates is atom    3       0.007 Angstoms.
 Leave Link  103 at Sat Aug 17 15:03:40 2024, MaxMem=   13107200 cpu:       0.0
 (Enter /programs/64bit/g09/g09-gfortran/bin/l202.exe)
                          Input orientation:                          
 ---------------------------------------------------------------------
 Center     Atomic      Atomic             Coordinates (Angstroms)
 Number     Number       Type             X           Y           Z
 ---------------------------------------------------------------------
      1          6           0        0.000000   -0.000000   -0.000000
      2          1           0        0.000000    0.000000    1.096845
      3          1           0        1.034116   -0.000000   -0.365615
      4          1           0       -0.517058   -0.895570   -0.365615
      5          1           0       -0.517058    0.895570   -0.365615
 ---------------------------------------------------------------------
                    Distance matrix (angstroms):
                    1          2          3          4          5
     1  C    0.000000
     2  H    1.096845   0.000000
     3  H    1.096845   1.791141   0.000000
     4  H    1.096845   1.791141   1.791141   0.000000
     5  H    1.096845   1.791141   1.791141   1.791141   0.000000
 Stoichiometry    CH4
 Framework group  TD[O(C),4C3(H)]
 Deg. of freedom     1
 Prev. full point group           TD      NOp  24
 Prev. largest Abelian subgroup   D2      NOp   4
       concise Abelian subgroup   D2      NOp   4
                   Standard orientation:
 ---------------------------------------------------------------------
 Center     Atomic                     Coordinates (Angstroms)
 Number     Number                        X           Y           Z
 ---------------------------------------------------------------------
      1          6                    0.000000    0.000000    0.000000
      2          1                    0.608332    0.538617    0.736812
      3          1                   -0.553892   -0.803608    0.500487
      4          1                   -0.707568    0.695118   -0.468218
      5          1                    0.653128   -0.430127   -0.769080
 ---------------------------------------------------------------------
 TstSym:  Max error for IOp=  3 IAt=    3 Err= 7.06D-01
 TstSym:  IOp= 25 I=    6 IP=    4 Err= 7.06D-01
  CI=  0.000000000000D+00  0.000000000000D+00  0.000000000000D+00
   T=  1.046703882184D+00 -1.518599643640D+00 -9.457824358497D-01
 CIP= -1.337109679178D+00  1.313581720671D+00 -8.848045431452D-01
 Unable to use previous symmetry information.  Redetermining point group.
 No symmetry information on checkpoint file.  Reassigning symmetry.
 Symm:  InNGrp=TD   InAxis=0.
 Stoichiometry    CH4
 Framework group  TD[O(C),4C3(H)]
 Deg. of freedom     1
 Full point group                 TD      NOp  24
 Largest Abelian subgroup         D2      NOp   4
 Largest concise Abelian subgroup D2      NOp   4
                         Standard orientation:                         
 ---------------------------------------------------------------------
 Center     Atomic      Atomic             Coordinates (Angstroms)
 Number     Number       Type             X           Y           Z
 ---------------------------------------------------------------------
      1          6           0        0.000000    0.000000    0.000000
      2          1           0        0.633264    0.633264    0.633264
      3          1           0       -0.633264   -0.633264    0.633264
      4          1           0       -0.633264    0.633264   -0.633264
      5          1           0        0.633264   -0.633264   -0.633264
 ---------------------------------------------------------------------
 Rotational constants (GHZ):    156.3049367    156.3049367    156.3049367
 Leave Link  202 at Sat Aug 17 15:03:40 2024, MaxMem=   13107200 cpu:       0.0
 (Enter /programs/64bit/g09/g09-gfortran/bin/l601.exe)
 Copying SCF densities to generalized density rwf, IOpCl= 0 IROHF=0.

 **********************************************************************

            Population analysis using the SCF density.

 **********************************************************************

 Orbital symmetries:
       Occupied  (A1) (A1) (T2) (T2) (T2)
       Virtual   (T2) (T2) (T2) (A1)
 The electronic state is 1-A1.
 Alpha  occ. eigenvalues --   -9.99634  -0.66075  -0.35994  -0.35994  -0.35994
 Alpha virt. eigenvalues --    0.45514   0.45514   0.45514   0.48852
     Molecular Orbital Coefficients:
                           1         2         3         4         5
                        (A1)--O   (A1)--O   (T2)--O   (T2)--O   (T2)--O
     Eigenvalues --    -9.99634  -0.66075  -0.35994  -0.35994  -0.35994
   1 1   C  1S          0.99031  -0.22446   0.00000   0.00000   0.00000
   2        2S          0.04626   0.63678   0.00000   0.00000   0.00000
   3        2PX         0.00000   0.00000   0.57784   0.00000   0.00000
   4        2PY         0.00000   0.00000   0.00000   0.57784   0.00000
   5        2PZ         0.00000   0.00000   0.00000   0.00000   0.57784
   6 2   H  1S         -0.00917   0.17873   0.29807   0.29807   0.29807
   7 3   H  1S         -0.00917   0.17873  -0.29807  -0.29807   0.29807
   8 4   H  1S         -0.00917   0.17873  -0.29807   0.29807  -0.29807
   9 5   H  1S         -0.00917   0.17873   0.29807  -0.29807  -0.29807
                           6         7         8         9
                        (T2)--V   (T2)--V   (T2)--V   (A1)--V
     Eigenvalues --     0.45514   0.45514   0.45514   0.48852
   1 1   C  1S          0.00000   0.00000   0.00000  -0.25452
   2        2S          0.00000   0.00000   0.00000   1.59481
   3        2PX         0.00000   1.09292   0.00000   0.00000
   4        2PY         1.09292   0.00000   0.00000   0.00000
   5        2PZ         0.00000   0.00000   1.09292   0.00000
   6 2   H  1S         -0.60787  -0.60787  -0.60787  -0.65911
   7 3   H  1S          0.60787   0.60787  -0.60787  -0.65911
   8 4   H  1S         -0.60787   0.60787   0.60787  -0.65911
   9 5   H  1S          0.60787  -0.60787   0.60787  -0.65911
     Density Matrix:
                           1         2         3         4         5
   1 1   C  1S          2.06218
   2        2S         -0.19424   0.81525
   3        2PX         0.00000   0.00000   0.66780
   4        2PY         0.00000   0.00000   0.00000   0.66780
   5        2PZ         0.00000   0.00000  -0.00000   0.00000   0.66780
   6 2   H  1S         -0.09841   0.22677   0.34447   0.34447   0.34447
   7 3   H  1S         -0.09841   0.22677  -0.34447  -0.34447   0.34447
   8 4   H  1S         -0.09841   0.22677  -0.34447   0.34447  -0.34447
   9 5   H  1S         -0.09841   0.22677   0.34447  -0.34447  -0.34447
                           6         7         8         9
   6 2   H  1S          0.59712
   7 3   H  1S         -0.11363   0.59712
   8 4   H  1S         -0.11363  -0.11363   0.59712
   9 5   H  1S         -0.11363  -0.11363  -0.11363   0.59712
    Full Mulliken population analysis:
                           1         2         3         4         5
   1 1   C  1S          2.06218
   2        2S         -0.04824   0.81525
   3        2PX         0.00000   0.00000   0.66780
   4        2PY         0.00000   0.00000   0.00000   0.66780
   5        2PZ         0.00000   0.00000   0.00000   0.00000   0.66780
   6 2   H  1S         -0.00603   0.11040   0.09246   0.09246   0.09246
   7 3   H  1S         -0.00603   0.11040   0.09246   0.09246   0.09246
   8 4   H  1S         -0.00603   0.11040   0.09246   0.09246   0.09246
   9 5   H  1S         -0.00603   0.11040   0.09246   0.09246   0.09246
                           6         7         8         9
   6 2   H  1S          0.59712
   7 3   H  1S         -0.01890   0.59712
   8 4   H  1S         -0.01890  -0.01890   0.59712
   9 5   H  1S         -0.01890  -0.01890  -0.01890   0.59712
     Gross orbital populations:
                           1
   1 1   C  1S          1.98981
   2        2S          1.20860
   3        2PX         1.03765
   4        2PY         1.03765
   5        2PZ         1.03765
   6 2   H  1S          0.92216
   7 3   H  1S          0.92216
   8 4   H  1S          0.92216
   9 5   H  1S          0.92216
          Condensed to atoms (all electrons):
              1          2          3          4          5
     1  C    4.784338   0.381754   0.381754   0.381754   0.381754
     2  H    0.381754   0.597120  -0.018904  -0.018904  -0.018904
     3  H    0.381754  -0.018904   0.597120  -0.018904  -0.018904
     4  H    0.381754  -0.018904  -0.018904   0.597120  -0.018904
     5  H    0.381754  -0.018904  -0.018904  -0.018904   0.597120
 Mulliken atomic charges:
              1
     1  C   -0.311353
     2  H    0.077838
     3  H    0.077838
     4  H    0.077838
     5  H    0.077838
 Sum of Mulliken atomic charges =  -0.00000
 Mulliken charges with hydrogens summed into heavy atoms:
              1
     1  C   -0.000000
 Sum of Mulliken charges with hydrogens summed into heavy atoms =  -0.00000
 Electronic spatial extent (au):  <R**2>=             34.4406
 Charge=             -0.0000 electrons
 Dipole moment (field-independent basis, Debye):
    X=             -0.0000    Y=              0.0000    Z=              0.0000  Tot=              0.0000
 Quadrupole moment (field-independent basis, Debye-Ang):
   XX=             -7.7365   YY=             -7.7365   ZZ=             -7.7365
   XY=              0.0000   XZ=             -0.0000   YZ=              0.0000
 Traceless Quadrupole moment (field-independent basis, Debye-Ang):
   XX=              0.0000   YY=             -0.0000   ZZ=              0.0000
   XY=              0.0000   XZ=             -0.0000   YZ=              0.0000
 Octapole moment (field-independent basis, Debye-Ang**2):
  XXX=             -0.0000  YYY=              0.0000  ZZZ=              0.0000  XYY=             -0.0000
  XXY=              0.0000  XXZ=             -0.0000  XZZ=             -0.0000  YZZ=              0.0000
  YYZ=              0.0000  XYZ=              0.6769
 Hexadecapole moment (field-independent basis, Debye-Ang**3):
[...]
 Temperature   298.150 Kelvin.  Pressure   1.00000 Atm.
 Atom     1 has atomic number  6 and mass  12.00000
 Atom     2 has atomic number  1 and mass   1.00783
 Atom     3 has atomic number  1 and mass   1.00783
 Atom     4 has atomic number  1 and mass   1.00783
 Atom     5 has atomic number  1 and mass   1.00783
 Molecular mass:    16.03130 amu.
 Principal axes and moments of inertia in atomic units:
                           1         2         3
     Eigenvalues --    11.54628  11.54628  11.54628
           X            0.27529  -0.66104   0.69802
           Y            0.94051   0.03478  -0.33799
           Z            0.19915   0.74954   0.63129
 This molecule is a spherical top.
 Rotational symmetry number 12.
 Rotational temperatures (Kelvin)      7.50144     7.50144     7.50144
 Rotational constants (GHZ):         156.30494   156.30494   156.30494
 Zero-point vibrational energy     131503.9 (Joules/Mol)
                                   31.43019 (Kcal/Mol)
 Vibrational temperatures:   2209.74  2209.74  2209.74  2536.57  2536.57
          (Kelvin)           4725.06  5068.37  5068.37  5068.37
 
 Zero-point correction=                           0.050087 (Hartree/Particle)
 Thermal correction to Energy=                    0.052936
 Thermal correction to Enthalpy=                  0.053880
 Thermal correction to Gibbs Free Energy=         0.032757
 Sum of electronic and zero-point Energies=            -39.988837
 Sum of electronic and thermal Energies=               -39.985989
 Sum of electronic and thermal Enthalpies=             -39.985045
 Sum of electronic and thermal Free Energies=          -40.006167
 
                     E (Thermal)             CV                S
                      KCal/Mol        Cal/Mol-Kelvin    Cal/Mol-Kelvin
 Total                   33.218              6.218             44.456
 Electronic               0.000              0.000              0.000
 Translational            0.889              2.981             34.261
 Rotational               0.889              2.981             10.157
 Vibrational             31.440              0.256              0.038
                       Q            Log10(Q)             Ln(Q)
 Total Bot       0.856518D-15        -15.067264        -34.693657
 Total V=0       0.935836D+08          7.971200         18.354366
 Vib (Bot)       0.917275D-23        -23.037501        -53.045805
 Vib (V=0)       0.100222D+01          0.000963          0.002217
 Electronic      0.100000D+01          0.000000          0.000000
 Translational   0.252295D+07          6.401908         14.740939
 Rotational      0.370108D+02          1.568329          3.611210
 
                                      methane with imposed symmetry and hf/STO-3G
  basis function
                                                             IR Spectrum
 
      3       3                                                      1       1                                                       
      5       2                                                      7       5                                                       
      2       8                                                      6       3                                                       
      3       4                                                      3       6                                                       
 
      X                                                                      X                                                       
                                                                             X                                                       
                                                                             X                                                       
                                                                             X                                                       
                                                                             X                                                       
                                                                             X                                                       
                                                                             X                                                       
                                                                             X                                                       
                                                                             X                                                       
                                                                             X                                                       
                                                                             X                                                       
                                                                             X                                                       
                                                                             X                                                       
                                                                             X                                                       
                                                                             X                                                       
                                                                             X                                                       
                                                                             X                                                       
                                                                             X                                                       
                                                                             X                                                       
                                                                             X                                                       
 
 ***** Axes restored to original set *****
 -------------------------------------------------------------------
 Center     Atomic                   Forces (Hartrees/Bohr)
 Number     Number              X              Y              Z
 -------------------------------------------------------------------
      1        6           0.000000000    0.000000000    0.000000000
      2        1           0.000000000    0.000000000    0.000000032
      3        1           0.000000030    0.000000000   -0.000000011
      4        1          -0.000000015   -0.000000026   -0.000000011
      5        1          -0.000000015    0.000000026   -0.000000011
 -------------------------------------------------------------------
 Cartesian Forces:  Max     0.000000032 RMS     0.000000017
 Force constants in Cartesian coordinates: 
                1             2             3             4             5 
      1  0.712642D+00
      2  0.000000D+00  0.712642D+00
      3  0.000000D+00  0.000000D+00  0.712642D+00
      4 -0.639827D-01  0.000000D+00  0.000000D+00  0.577865D-01
      5  0.000000D+00 -0.639827D-01  0.000000D+00  0.000000D+00  0.577865D-01
      6  0.000000D+00  0.000000D+00 -0.406516D+00  0.000000D+00  0.000000D+00
      7 -0.368457D+00  0.000000D+00  0.107648D+00  0.567490D-02  0.000000D+00
      8  0.000000D+00 -0.639827D-01  0.000000D+00  0.000000D+00 -0.154409D-02
      9  0.107648D+00  0.000000D+00 -0.102042D+00  0.393186D-01  0.000000D+00
     10 -0.140101D+00 -0.131841D+00 -0.538239D-01  0.260656D-03  0.312592D-02
     11 -0.131841D+00 -0.292338D+00 -0.932257D-01  0.312592D-02  0.387015D-02
     12 -0.538239D-01 -0.932257D-01 -0.102042D+00 -0.196593D-01 -0.340509D-01
     13 -0.140101D+00  0.131841D+00 -0.538239D-01  0.260656D-03 -0.312592D-02
     14  0.131841D+00 -0.292338D+00  0.932257D-01 -0.312592D-02  0.387015D-02
     15 -0.538239D-01  0.932257D-01 -0.102042D+00 -0.196593D-01  0.340509D-01
                6             7             8             9            10 
      6  0.424175D+00
      7 -0.661786D-02  0.383466D+00
      8  0.000000D+00  0.000000D+00  0.577865D-01
      9 -0.588655D-02 -0.115145D+00  0.000000D+00  0.984964D-01
     10  0.330893D-02 -0.103420D-01 -0.310615D-01 -0.159107D-01  0.139206D+00
     11  0.573123D-02  0.644543D-02  0.387015D-02  0.103673D-02  0.141023D+00
     12 -0.588655D-02  0.705752D-02  0.142974D-01  0.471606D-02  0.575725D-01
     13  0.330893D-02 -0.103420D-01  0.310615D-01 -0.159107D-01  0.109762D-01
     14 -0.573123D-02 -0.644543D-02  0.387015D-02 -0.103673D-02  0.187535D-01
     15 -0.588655D-02  0.705752D-02 -0.142974D-01  0.471606D-02  0.885319D-02
               11            12            13            14            15 
     11  0.302046D+00
     12  0.997184D-01  0.984964D-01
     13 -0.187535D-01  0.885319D-02  0.139206D+00
     14 -0.174480D-01  0.132607D-01 -0.141023D+00  0.302046D+00
     15 -0.132607D-01  0.471606D-02  0.575725D-01 -0.997184D-01  0.984964D-01
 Force constants in internal coordinates: 
                1             2             3             4             5 
      1  0.424175D+00
      2 -0.427719D-02  0.424175D+00
      3 -0.427719D-02 -0.427719D-02  0.424175D+00
      4 -0.427719D-02 -0.427719D-02 -0.427719D-02  0.424175D+00
      5  0.177246D-02  0.177246D-02 -0.111294D-02 -0.243198D-02  0.252598D-01
      6  0.277787D-02 -0.716871D-03  0.309151D-02 -0.515251D-02 -0.110836D-01
      7  0.542850D-02 -0.435678D-02 -0.482275D-02  0.375103D-02 -0.166936D-01
      8 -0.716871D-03  0.277787D-02  0.309151D-02 -0.515251D-02 -0.110836D-01
      9 -0.435678D-02  0.542850D-02 -0.482275D-02  0.375103D-02 -0.166936D-01
     10 -0.490519D-02 -0.490519D-02  0.457543D-02  0.523495D-02  0.302946D-01
     11 -0.343292D-02 -0.343292D-02 -0.242324D-02  0.928907D-02 -0.173623D-01
     12  0.282711D-02  0.282711D-02 -0.726971D-02  0.161549D-02  0.104914D-01
     13 -0.372265D-02  0.654976D-02 -0.363485D-02  0.807745D-03  0.524569D-02
     14 -0.654976D-02  0.372265D-02  0.363485D-02 -0.807745D-03 -0.524569D-02
                6             7             8             9            10 
      6  0.477494D-01
      7 -0.289449D-01  0.932793D-01
      8 -0.242779D-02  0.313257D-01  0.477494D-01
      9  0.313257D-01 -0.450179D-01 -0.289449D-01  0.932793D-01
     10 -0.366189D-01 -0.339486D-01 -0.366189D-01 -0.339486D-01  0.110840D+00
     11 -0.141791D-01  0.189875D-01 -0.141791D-01  0.189875D-01  0.774561D-02
     12 -0.121166D-01  0.910852D-02 -0.121166D-01  0.910852D-02 -0.447526D-02
     13 -0.183314D-01 -0.882441D-03  0.621481D-02  0.999096D-02 -0.223763D-02
     14 -0.621481D-02 -0.999096D-02  0.183314D-01  0.882441D-03  0.223763D-02
               11            12            13            14 
     11  0.386302D-01
     12  0.199046D-02  0.240049D-01
     13  0.995232D-03  0.120024D-01  0.243619D-01
     14 -0.995232D-03 -0.120024D-01  0.123595D-01  0.243619D-01
 Leave Link  716 at Sat Aug 17 15:03:44 2024, MaxMem=   13107200 cpu:       0.0
 (Enter /programs/64bit/g09/g09-gfortran/bin/l103.exe)

 GradGradGradGradGradGradGradGradGradGradGradGradGradGradGradGradGradGrad
 Berny optimization.
 Internal  Forces:  Max     0.000000032 RMS     0.000000017
 Search for a local minimum.
 Step number   1 out of a maximum of    2
 All quantities printed in internal units (Hartrees-Bohrs-Radians)
 Second derivative matrix not updated -- analytic derivatives used.
 The second derivative matrix:
                          R1        R2        R3        R4        A1
           R1           0.42418
           R2          -0.00428   0.42418
           R3          -0.00428  -0.00428   0.42418
           R4          -0.00428  -0.00428  -0.00428   0.42418
           A1           0.00177   0.00177  -0.00111  -0.00243   0.02526
           A2           0.00278  -0.00072   0.00309  -0.00515  -0.01108
           A3           0.00543  -0.00436  -0.00482   0.00375  -0.01669
           A4          -0.00072   0.00278   0.00309  -0.00515  -0.01108
           A5          -0.00436   0.00543  -0.00482   0.00375  -0.01669
           A6          -0.00491  -0.00491   0.00458   0.00523   0.03029
           D1          -0.00343  -0.00343  -0.00242   0.00929  -0.01736
           D2           0.00283   0.00283  -0.00727   0.00162   0.01049
           D3          -0.00372   0.00655  -0.00363   0.00081   0.00525
           D4          -0.00655   0.00372   0.00363  -0.00081  -0.00525
                          A2        A3        A4        A5        A6
           A2           0.04775
           A3          -0.02894   0.09328
           A4          -0.00243   0.03133   0.04775
           A5           0.03133  -0.04502  -0.02894   0.09328
           A6          -0.03662  -0.03395  -0.03662  -0.03395   0.11084
           D1          -0.01418   0.01899  -0.01418   0.01899   0.00775
           D2          -0.01212   0.00911  -0.01212   0.00911  -0.00448
           D3          -0.01833  -0.00088   0.00621   0.00999  -0.00224
           D4          -0.00621  -0.00999   0.01833   0.00088   0.00224
                          D1        D2        D3        D4
           D1           0.03863
           D2           0.00199   0.02400
           D3           0.00100   0.01200   0.02436
           D4          -0.00100  -0.01200   0.01236   0.02436
     Eigenvalues ---    0.04951   0.05584   0.08510   0.16827   0.16872
     Eigenvalues ---    0.41134   0.42907   0.42908   0.429271000.00000
     Eigenvalues --- 1000.000001000.000001000.000001000.00000
 Angle between quadratic step and forces=  90.00 degrees.
 Linear search not attempted -- first point.
 Iteration  1 RMS(Cart)=  0.00000004 RMS(Int)=  0.00000000
 ClnCor:  largest displacement from symmetrization is 1.01D-14 for atom     1.
 Variable       Old X    -DE/DX   Delta X   Delta X   Delta X     New X
                                 (Linear)    (Quad)   (Total)
    R1        2.07274   0.00000   0.00000   0.00000   0.00000   2.07274
    R2        2.07274   0.00000   0.00000   0.00000   0.00000   2.07274
    R3        2.07274   0.00000   0.00000   0.00000   0.00000   2.07274
    R4        2.07274   0.00000   0.00000   0.00000   0.00000   2.07274
    A1        1.91063  -0.00000   0.00000   0.00000  -0.00000   1.91063
    A2        1.91063   0.00000   0.00000   0.00000   0.00000   1.91063
    A3        1.91063   0.00000   0.00000   0.00000   0.00000   1.91063
    A4        1.91063  -0.00000   0.00000  -0.00000   0.00000   1.91063
    A5        1.91063   0.00000   0.00000   0.00000   0.00000   1.91063
    A6        1.91063  -0.00000   0.00000  -0.00000  -0.00000   1.91063
    D1       -2.09440   0.00000   0.00000  -0.00000   0.00000  -2.09440
    D2        2.09440   0.00000   0.00000   0.00000   0.00000   2.09440
    D3       -2.09440   0.00000   0.00000   0.00000   0.00000  -2.09440
    D4        2.09440  -0.00000   0.00000  -0.00000   0.00000   2.09440
         Item               Value     Threshold  Converged?
 Maximum Force            0.000000     0.000450     YES
 RMS     Force            0.000000     0.000300     YES
 Maximum Displacement     0.000000     0.001800     YES
 RMS     Displacement     0.000000     0.001200     YES
 Predicted change in Energy=-5.082297D-15
 Optimization completed.
    -- Stationary point found.
                           ----------------------------
                           !   Optimized Parameters   !
                           ! (Angstroms and Degrees)  !
 --------------------------                            --------------------------
 ! Name  Definition              Value          Derivative Info.                !
 --------------------------------------------------------------------------------
 ! R1    R(1,2)                  1.0968         -DE/DX =    0.0                 !
 ! R2    R(1,3)                  1.0968         -DE/DX =    0.0                 !
 ! R3    R(1,4)                  1.0968         -DE/DX =    0.0                 !
 ! R4    R(1,5)                  1.0968         -DE/DX =    0.0                 !
 ! A1    A(2,1,3)              109.4712         -DE/DX =    0.0                 !
 ! A2    A(2,1,4)              109.4712         -DE/DX =    0.0                 !
 ! A3    A(2,1,5)              109.4712         -DE/DX =    0.0                 !
 ! A4    A(3,1,4)              109.4712         -DE/DX =    0.0                 !
 ! A5    A(3,1,5)              109.4712         -DE/DX =    0.0                 !
 ! A6    A(4,1,5)              109.4712         -DE/DX =    0.0                 !
 ! D1    D(2,1,4,3)           -120.0            -DE/DX =    0.0                 !
 ! D2    D(2,1,5,3)            120.0            -DE/DX =    0.0                 !
 ! D3    D(2,1,5,4)           -120.0            -DE/DX =    0.0                 !
 ! D4    D(3,1,5,4)            120.0            -DE/DX =    0.0                 !
 --------------------------------------------------------------------------------
 GradGradGradGradGradGradGradGradGradGradGradGradGradGradGradGradGradGrad

 Leave Link  103 at Sat Aug 17 15:03:44 2024, MaxMem=   13107200 cpu:       0.0
 (Enter /programs/64bit/g09/g09-gfortran/bin/l9999.exe)
 1\1\GINC-MOLMOD\Freq\RB3LYP\STO-3G\C1H4\OSPITE\17-Aug-2024\0\\#P Geom=
 AllCheck Guess=TCheck SCRF=Check GenChk RB3LYP/STO-3G Freq\\methane wi
 th imposed symmetry and hf/STO-3G basis function\\0,1\C,0.,0.,0.\H,0.,
 0.,1.0968451338\H,1.0341155093,0.,-0.3656150446\H,-0.5170577547,-0.895
 5703015,-0.3656150446\H,-0.5170577547,0.8955703015,-0.3656150446\\Vers
 ion=EM64L-G09RevA.02\State=1-A1\HF=-40.0389245\RMSD=1.122e-15\RMSF=1.6
 70e-08\ZeroPoint=0.0500872\Thermal=0.0529357\Dipole=0.,0.,0.\DipoleDer
 iv=-0.1199392,0.,0.,0.,-0.1199392,0.,0.,0.,-0.1199392,0.06277,0.,0.,0.
 ,0.06277,0.,0.,0.,-0.0355856,-0.0246572,0.,0.0309102,0.,0.06277,0.,0.0
 309102,0.,0.0518416,0.0409132,-0.0378571,-0.0154551,-0.0378571,-0.0028
 004,-0.026769,-0.0154551,-0.026769,0.0518416,0.0409132,0.0378571,-0.01
 54551,0.0378571,-0.0028004,0.026769,-0.0154551,0.026769,0.0518416\Pola
 r=5.6450901,0.,5.6450901,0.,0.,5.6450901\PG=TD [O(C1),4C3(H1)]\NImag=0
 \\0.71264170,0.,0.71264170,0.,0.,0.71264170,-0.06398273,0.,0.,0.057786
 51,0.,-0.06398273,0.,0.,0.05778651,0.,0.,-0.40651582,0.,0.,0.42417547,
 -0.36845659,0.,0.10764777,0.00567490,0.,-0.00661786,0.38346559,0.,-0.0
 6398273,0.,0.,-0.00154409,0.,0.,0.05778651,0.10764777,0.,-0.10204196,0
 .03931859,0.,-0.00588655,-0.11514494,0.,0.09849640,-0.14010119,-0.1318
 4105,-0.05382388,0.00026066,0.00312592,0.00330893,-0.01034195,-0.03106
 152,-0.01591071,0.13920628,-0.13184105,-0.29233812,-0.09322570,0.00312
 592,0.00387015,0.00573123,0.00644543,0.00387015,0.00103673,0.14102318,
 0.30204582,-0.05382388,-0.09322570,-0.10204196,-0.01965930,-0.03405090
 ,-0.00588655,0.00705752,0.01429744,0.00471606,0.05757247,0.09971845,0.
 09849640,-0.14010119,0.13184105,-0.05382388,0.00026066,-0.00312592,0.0
 0330893,-0.01034195,0.03106152,-0.01591071,0.01097621,-0.01875348,0.00
 885319,0.13920628,0.13184105,-0.29233812,0.09322570,-0.00312592,0.0038
 7015,-0.00573123,-0.00644543,0.00387015,-0.00103673,0.01875348,-0.0174
 4801,0.01326071,-0.14102318,0.30204582,-0.05382388,0.09322570,-0.10204
 196,-0.01965930,0.03405090,-0.00588655,0.00705752,-0.01429744,0.004716
 06,0.00885319,-0.01326071,0.00471606,0.05757247,-0.09971845,0.09849640
 \\0.,0.,0.,0.,0.,-0.00000003,-0.00000003,0.,0.00000001,0.00000002,0.00
 000003,0.00000001,0.00000002,-0.00000003,0.00000001\\\@


 CHILDREN YOU ARE VERY LITTLE,
 AND YOUR BONES ARE VERY BRITTLE;
 IF YOU WOULD GROW GREAT AND STATELY
 YOU MUST TRY TO WALK SEDATELY.
 YOU MUST STILL BE BRIGHT AND QUIET,
 AND CONTENT WITH SIMPLE DIET;
 AND REMAIN, THROUGH ALL BEWILD'RING
 INNOCENT AND HONEST CHILDREN.
     -- A CHILD'S GARDEN OF VERSE,
        ROBERT LOUIS STEVENSON
 Job cpu time:  0 days  0 hours  0 minutes  3.1 seconds.
 File lengths (MBytes):  RWF=      5 Int=      0 D2E=      0 Chk=      1 Scr=      1
 Normal termination of Gaussian 09 at Sat Aug 17 15:03:44 2024.
