 Entering Gaussian System, Link 0=/programs/64bit/g09/g09-gfortran/bin/g09
 Input=ch4_aug-cc-pVDZ.com
 Output=ch4_aug-cc-pVDZ.log
 Initial command:
 /programs/64bit/g09/g09-gfortran/bin/l1.exe /home/ospite/Desktop/MMfP/Project6/CH4/g09/DFT/Gau-4740.inp -scrdir=/home/ospite/Desktop/MMfP/Project6/CH4/g09/DFT/
 Entering Link 1 = /programs/64bit/g09/g09-gfortran/bin/l1.exe PID=      4741.
  
 Copyright (c) 1988,1990,1992,1993,1995,1998,2003,2009, Gaussian, Inc.
                  All Rights Reserved.
  
 This is part of the Gaussian(R) 09 program.  It is based on
 the Gaussian(R) 03 system (copyright 2003, Gaussian, Inc.),
 the Gaussian(R) 98 system (copyright 1998, Gaussian, Inc.),
 the Gaussian(R) 94 system (copyright 1995, Gaussian, Inc.),
 the Gaussian 92(TM) system (copyright 1992, Gaussian, Inc.),
 the Gaussian 90(TM) system (copyright 1990, Gaussian, Inc.),
 the Gaussian 88(TM) system (copyright 1988, Gaussian, Inc.),
 the Gaussian 86(TM) system (copyright 1986, Carnegie Mellon
 University), and the Gaussian 82(TM) system (copyright 1983,
 Carnegie Mellon University). Gaussian is a federally registered
 trademark of Gaussian, Inc.
  
 This software contains proprietary and confidential information,
 including trade secrets, belonging to Gaussian, Inc.
  
 This software is provided under written license and may be
 used, copied, transmitted, or stored only in accord with that
 written license.
  
 The following legend is applicable only to US Government
 contracts under FAR:
  
                    RESTRICTED RIGHTS LEGEND
  
 Use, reproduction and disclosure by the US Government is
 subject to restrictions as set forth in subparagraphs (a)
 and (c) of the Commercial Computer Software - Restricted
 Rights clause in FAR 52.227-19.
  
 Gaussian, Inc.
 340 Quinnipiac St., Bldg. 40, Wallingford CT 06492
  
  
 ---------------------------------------------------------------
 Warning -- This program may not be used in any manner that
 competes with the business of Gaussian, Inc. or will provide
 assistance to any competitor of Gaussian, Inc.  The licensee
 of this program is prohibited from giving any competitor of
 Gaussian, Inc. access to this program.  By using this program,
 the user acknowledges that Gaussian, Inc. is engaged in the
 business of creating and licensing software in the field of
 computational chemistry and represents and warrants to the
 licensee that it is not a competitor of Gaussian, Inc. and that
 it will not use this program in any manner prohibited above.
 ---------------------------------------------------------------
  

 Cite this work as:
 Gaussian 09, Revision A.02,
 M. J. Frisch, G. W. Trucks, H. B. Schlegel, G. E. Scuseria, 
 M. A. Robb, J. R. Cheeseman, G. Scalmani, V. Barone, B. Mennucci, 
 G. A. Petersson, H. Nakatsuji, M. Caricato, X. Li, H. P. Hratchian, 
 A. F. Izmaylov, J. Bloino, G. Zheng, J. L. Sonnenberg, M. Hada, 
 M. Ehara, K. Toyota, R. Fukuda, J. Hasegawa, M. Ishida, T. Nakajima, 
 Y. Honda, O. Kitao, H. Nakai, T. Vreven, J. A. Montgomery, Jr., 
 J. E. Peralta, F. Ogliaro, M. Bearpark, J. J. Heyd, E. Brothers, 
 K. N. Kudin, V. N. Staroverov, R. Kobayashi, J. Normand, 
 K. Raghavachari, A. Rendell, J. C. Burant, S. S. Iyengar, J. Tomasi, 
 M. Cossi, N. Rega, J. M. Millam, M. Klene, J. E. Knox, J. B. Cross, 
 V. Bakken, C. Adamo, J. Jaramillo, R. Gomperts, R. E. Stratmann, 
 O. Yazyev, A. J. Austin, R. Cammi, C. Pomelli, J. W. Ochterski, 
 R. L. Martin, K. Morokuma, V. G. Zakrzewski, G. A. Voth, 
 P. Salvador, J. J. Dannenberg, S. Dapprich, A. D. Daniels, 
 O. Farkas, J. B. Foresman, J. V. Ortiz, J. Cioslowski, 
 and D. J. Fox, Gaussian, Inc., Wallingford CT, 2009.
 
 ******************************************
 Gaussian 09:  EM64L-G09RevA.02 11-Jun-2009
                17-Aug-2024 
 ******************************************
 %mem=100MB
 ----------------------------------------------------------------------
 #p b3lyp/aug-cc-pVDZ opt freq symmetry=(follow,pg=Td) pop=full gfinput
 ----------------------------------------------------------------------
 1/14=-1,18=20,19=15,26=3,38=1/1,3;
 2/9=110,12=2,17=6,18=5,19=2314885530818462804,40=1/2;
 3/5=16,7=10,11=2,16=1,24=10,25=1,30=1,71=1,74=-5/1,2,3;
 4//1;
 5/5=2,38=5/2;
 6/7=3,28=1/1;
 7//1,2,3,16;
 1/14=-1,18=20,19=15/3(2);
 2/9=110,15=5,19=2314885530818462804/2;
 99//99;
 2/9=110,15=5,19=2314885530818462804/2;
 3/5=16,7=10,11=2,16=1,25=1,30=1,71=1,74=-5/1,2,3;
 4/5=5,16=3/1;
 5/5=2,38=5/2;
 7//1,2,3,16;
 1/14=-1,18=20,19=15/3(-5);
 2/9=110,15=5,19=2314885530818462804/2;
 6/7=3,19=2,28=1/1;
 99/9=1/99;
 Leave Link    1 at Sat Aug 17 15:02:12 2024, MaxMem=   13107200 cpu:       0.1
 (Enter /programs/64bit/g09/g09-gfortran/bin/l101.exe)
 ---------------------------------------------------------------
 methane with imposed symmetry and hf/aug-cc-pVDZ basis function
 ---------------------------------------------------------------
 Symbolic Z-matrix:
 Charge =  0 Multiplicity = 1
 C1
 H2                   1    d
 H3                   1    d        2    a
 H4                   1    d        2    a        3    t        0
 H5                   1    d        2    a        3    -t       0
       Variables:
  d                     1.09                     
  a                   109.471                    
  t                   120.                       
 
     3 tetrahedral angles replaced.
 NAtoms=      5 NQM=      5 NQMF=      0 NMic=      0 NMicF=      0 NTot=      5.
                    Isotopes and Nuclear Properties:
 (Nuclear quadrupole moments (NQMom) in fm**2, nuclear magnetic moments (NMagM)
  in nuclear magnetons)

  Atom         1           2           3           4           5
 IAtWgt=          12           1           1           1           1
 AtmWgt=  12.0000000   1.0078250   1.0078250   1.0078250   1.0078250
 NucSpn=           0           1           1           1           1
 AtZEff=   0.0000000   0.0000000   0.0000000   0.0000000   0.0000000
 NQMom=    0.0000000   0.0000000   0.0000000   0.0000000   0.0000000
 NMagM=    0.0000000   2.7928460   2.7928460   2.7928460   2.7928460
 Leave Link  101 at Sat Aug 17 15:02:12 2024, MaxMem=   13107200 cpu:       0.1
 (Enter /programs/64bit/g09/g09-gfortran/bin/l103.exe)

 GradGradGradGradGradGradGradGradGradGradGradGradGradGradGradGradGradGrad
 Berny optimization.
 Initialization pass.
                           ----------------------------
                           !    Initial Parameters    !
                           ! (Angstroms and Degrees)  !
 --------------------------                            --------------------------
 ! Name  Definition              Value          Derivative Info.                !
 --------------------------------------------------------------------------------
 ! R1    R(1,2)                  1.09           estimate D2E/DX2                !
 ! R2    R(1,3)                  1.09           estimate D2E/DX2                !
 ! R3    R(1,4)                  1.09           estimate D2E/DX2                !
 ! R4    R(1,5)                  1.09           estimate D2E/DX2                !
 ! A1    A(2,1,3)              109.4712         estimate D2E/DX2                !
 ! A2    A(2,1,4)              109.4712         estimate D2E/DX2                !
 ! A3    A(2,1,5)              109.4712         estimate D2E/DX2                !
 ! A4    A(3,1,4)              109.4712         estimate D2E/DX2                !
 ! A5    A(3,1,5)              109.4712         estimate D2E/DX2                !
 ! A6    A(4,1,5)              109.4712         estimate D2E/DX2                !
 ! D1    D(2,1,4,3)           -120.0            estimate D2E/DX2                !
 ! D2    D(2,1,5,3)            120.0            estimate D2E/DX2                !
 ! D3    D(2,1,5,4)           -120.0            estimate D2E/DX2                !
 ! D4    D(3,1,5,4)            120.0            estimate D2E/DX2                !
 --------------------------------------------------------------------------------
 Trust Radius=3.00D-01 FncErr=1.00D-07 GrdErr=1.00D-06
 Number of steps in this run=  24 maximum allowed number of steps= 100.
 GradGradGradGradGradGradGradGradGradGradGradGradGradGradGradGradGradGrad

 Leave Link  103 at Sat Aug 17 15:02:12 2024, MaxMem=   13107200 cpu:       0.0
 (Enter /programs/64bit/g09/g09-gfortran/bin/l202.exe)
                          Input orientation:                          
 ---------------------------------------------------------------------
 Center     Atomic      Atomic             Coordinates (Angstroms)
 Number     Number       Type             X           Y           Z
 ---------------------------------------------------------------------
      1          6           0        0.000000    0.000000    0.000000
      2          1           0        0.000000    0.000000    1.090000
      3          1           0        1.027662    0.000000   -0.363333
      4          1           0       -0.513831   -0.889981   -0.363333
      5          1           0       -0.513831    0.889981   -0.363333
 ---------------------------------------------------------------------
                    Distance matrix (angstroms):
                    1          2          3          4          5
     1  C    0.000000
     2  H    1.090000   0.000000
     3  H    1.090000   1.779963   0.000000
     4  H    1.090000   1.779963   1.779963   0.000000
     5  H    1.090000   1.779963   1.779963   1.779963   0.000000
 Symm:  InNGrp=TD   InAxis=0.
 Stoichiometry    CH4
 Framework group  TD[O(C),4C3(H)]
 Deg. of freedom     1
 Full point group                 TD      NOp  24
 Largest Abelian subgroup         D2      NOp   4
 Largest concise Abelian subgroup D2      NOp   4
                         Standard orientation:                         
 ---------------------------------------------------------------------
 Center     Atomic      Atomic             Coordinates (Angstroms)
 Number     Number       Type             X           Y           Z
 ---------------------------------------------------------------------
      1          6           0        0.000000    0.000000    0.000000
      2          1           0        0.629312    0.629312    0.629312
      3          1           0       -0.629312   -0.629312    0.629312
      4          1           0       -0.629312    0.629312   -0.629312
      5          1           0        0.629312   -0.629312   -0.629312
 ---------------------------------------------------------------------
 Rotational constants (GHZ):    158.2742720    158.2742720    158.2742720
 Leave Link  202 at Sat Aug 17 15:02:12 2024, MaxMem=   13107200 cpu:       0.0
 (Enter /programs/64bit/g09/g09-gfortran/bin/l301.exe)
 Standard basis: Aug-CC-pVDZ (5D, 7F)
 Ernie: Thresh=  0.10000D-02 Tol=  0.10000D-05 Strict=F.
 Ernie:  2 primitive shells out of 53 were deleted.
 AO basis set in the form of general basis input (Overlap normalization):
      1 0
 S   7 1.00       0.000000000000
      0.6665000000D+04  0.6935163173D-03
      0.1000000000D+04  0.5341502433D-02
      0.2280000000D+03  0.2713667141D-01
      0.6471000000D+02  0.1019923853D+00
      0.2106000000D+02  0.2755086365D+00
      0.7495000000D+01  0.4510864331D+00
      0.2797000000D+01  0.2875657448D+00
 S   7 1.00       0.000000000000
      0.6665000000D+04  0.7733547404D-05
      0.2280000000D+03  0.2780721367D-03
      0.6471000000D+02 -0.2578756542D-02
      0.2106000000D+02 -0.8950876838D-02
      0.7495000000D+01 -0.1060588547D+00
      0.2797000000D+01 -0.1315176856D+00
      0.5215000000D+00  0.1099486598D+01
 S   1 1.00       0.000000000000
      0.1596000000D+00  0.1000000000D+01
 S   1 1.00       0.000000000000
      0.4690000000D-01  0.1000000000D+01
 P   3 1.00       0.000000000000
      0.9439000000D+01  0.5697925159D-01
      0.2002000000D+01  0.3132072115D+00
      0.5456000000D+00  0.7603767417D+00
 P   1 1.00       0.000000000000
      0.1517000000D+00  0.1000000000D+01
 P   1 1.00       0.000000000000
      0.4041000000D-01  0.1000000000D+01
 D   1 1.00       0.000000000000
      0.5500000000D+00  0.1000000000D+01
 D   1 1.00       0.000000000000
      0.1510000000D+00  0.1000000000D+01
 ****
      2 0
 S   3 1.00       0.000000000000
      0.1301000000D+02  0.3349872639D-01
      0.1962000000D+01  0.2348008012D+00
      0.4446000000D+00  0.8136829579D+00
 S   1 1.00       0.000000000000
      0.1220000000D+00  0.1000000000D+01
 S   1 1.00       0.000000000000
      0.2974000000D-01  0.1000000000D+01
 P   1 1.00       0.000000000000
      0.7270000000D+00  0.1000000000D+01
 P   1 1.00       0.000000000000
      0.1410000000D+00  0.1000000000D+01
 ****
      3 0
 S   3 1.00       0.000000000000
      0.1301000000D+02  0.3349872639D-01
      0.1962000000D+01  0.2348008012D+00
      0.4446000000D+00  0.8136829579D+00
 S   1 1.00       0.000000000000
      0.1220000000D+00  0.1000000000D+01
 S   1 1.00       0.000000000000
      0.2974000000D-01  0.1000000000D+01
 P   1 1.00       0.000000000000
      0.7270000000D+00  0.1000000000D+01
 P   1 1.00       0.000000000000
      0.1410000000D+00  0.1000000000D+01
 ****
      4 0
 S   3 1.00       0.000000000000
      0.1301000000D+02  0.3349872639D-01
      0.1962000000D+01  0.2348008012D+00
      0.4446000000D+00  0.8136829579D+00
 S   1 1.00       0.000000000000
      0.1220000000D+00  0.1000000000D+01
 S   1 1.00       0.000000000000
      0.2974000000D-01  0.1000000000D+01
 P   1 1.00       0.000000000000
      0.7270000000D+00  0.1000000000D+01
 P   1 1.00       0.000000000000
      0.1410000000D+00  0.1000000000D+01
 ****
      5 0
 S   3 1.00       0.000000000000
      0.1301000000D+02  0.3349872639D-01
      0.1962000000D+01  0.2348008012D+00
      0.4446000000D+00  0.8136829579D+00
 S   1 1.00       0.000000000000
      0.1220000000D+00  0.1000000000D+01
 S   1 1.00       0.000000000000
      0.2974000000D-01  0.1000000000D+01
 P   1 1.00       0.000000000000
      0.7270000000D+00  0.1000000000D+01
 P   1 1.00       0.000000000000
      0.1410000000D+00  0.1000000000D+01
 ****

 There are    17 symmetry adapted basis functions of A   symmetry.
 There are    14 symmetry adapted basis functions of B1  symmetry.
 There are    14 symmetry adapted basis functions of B2  symmetry.
 There are    14 symmetry adapted basis functions of B3  symmetry.
 Integral buffers will be    131072 words long.
 Raffenetti 2 integral format.
 Two-electron integral symmetry is turned on.
    59 basis functions,    87 primitive gaussians,    61 cartesian basis functions
     5 alpha electrons        5 beta electrons
       nuclear repulsion energy        13.4353891954 Hartrees.
 IExCor=  402 DFT=T Ex+Corr=B3LYP ExCW=0 ScaHFX=  0.200000
 ScaDFX=  0.800000  0.720000  1.000000  0.810000 ScalE2=  1.000000  1.000000
 IRadAn=      0 IRanWt=     -1 IRanGd=            0 ICorTp=0
 NAtoms=    5 NActive=    5 NUniq=    2 SFac= 3.00D+00 NAtFMM=   80 NAOKFM=F Big=F
 Leave Link  301 at Sat Aug 17 15:02:12 2024, MaxMem=   13107200 cpu:       0.1
 (Enter /programs/64bit/g09/g09-gfortran/bin/l302.exe)
 NPDir=0 NMtPBC=     1 NCelOv=     1 NCel=       1 NClECP=     1 NCelD=      1
         NCelK=      1 NCelE2=     1 NClLst=     1 CellRange=     0.0.
 One-electron integrals computed using PRISM.
 One-electron integral symmetry used in STVInt
 NBasis=    59 RedAO= T  NBF=    17    14    14    14
 NBsUse=    59 1.00D-06 NBFU=    17    14    14    14
 Precomputing XC quadrature grid using
 IXCGrd= 2 IRadAn=           0 IRanWt=          -1 IRanGd=           0 AccXCQ= 1.00D-10.
 NRdTot=     324 NPtTot=       40718 NUsed=       43064 NTot=       43096
 NSgBfM=    61    61    61    61    61 NAtAll=     5     5.
 Leave Link  302 at Sat Aug 17 15:02:13 2024, MaxMem=   13107200 cpu:       0.2
 (Enter /programs/64bit/g09/g09-gfortran/bin/l303.exe)
 DipDrv:  MaxL=1.
 Leave Link  303 at Sat Aug 17 15:02:13 2024, MaxMem=   13107200 cpu:       0.0
 (Enter /programs/64bit/g09/g09-gfortran/bin/l401.exe)
 Harris functional with IExCor=  402 diagonalized for initial guess.
 ExpMin= 2.97D-02 ExpMax= 6.66D+03 ExpMxC= 2.28D+02 IAcc=3 IRadAn=         0 AccDes= 0.00D+00
 HarFok:  IExCor=  402 AccDes= 0.00D+00 IRadAn=         0 IDoV= 1
 ScaDFX=  1.000000  1.000000  1.000000  1.000000
 FoFCou: FMM=F IPFlag=           0 FMFlag=      100000 FMFlg1=           0
         NFxFlg=           0 DoJE=T BraDBF=F KetDBF=T FulRan=T
         Omega=  0.000000  0.000000  1.000000  0.000000  0.000000 ICntrl=     500 IOpCl=  0
         NMat0=    1 NMatS0=    1 NMatT0=    0 NMatD0=    1 NMtDS0=    0 NMtDT0=    0
         I1Cent=           4 NGrid=           0.
 Petite list used in FoFCou.
 Harris En= -40.5642109390836    
 Initial guess orbital symmetries:
       Occupied  (A1) (A1) (T2) (T2) (T2)
       Virtual   (A1) (T2) (T2) (T2) (T2) (T2) (T2) (A1) (T2) (T2)
                 (T2) (E) (E) (A1) (T2) (T2) (T2) (T1) (T1) (T1)
                 (A1) (T2) (T2) (T2) (E) (E) (T2) (T2) (T2) (T2)
                 (T2) (T2) (A1) (T2) (T2) (T2) (E) (E) (T1) (T1)
                 (T1) (A1) (T2) (T2) (T2) (T2) (T2) (T2) (E) (E)
                 (A1) (T2) (T2) (T2)
 The electronic state of the initial guess is 1-A1.
 Leave Link  401 at Sat Aug 17 15:02:13 2024, MaxMem=   13107200 cpu:       0.6
 (Enter /programs/64bit/g09/g09-gfortran/bin/l502.exe)
 Closed shell SCF:
 Requested convergence on RMS density matrix=1.00D-08 within 128 cycles.
 Requested convergence on MAX density matrix=1.00D-06.
 Requested convergence on             energy=1.00D-06.
 No special actions if energy rises.
 Using DIIS extrapolation, IDIIS=  1040.
 Integral symmetry usage will be decided dynamically.
        43006 words used for storage of precomputed grid.
 Keep R1 ints in memory in canonical form, NReq=2743085.
 IEnd=       73989 IEndB=       73989 NGot=    13107200 MDV=    11264720
 LenX=    11264720 LenY=    11260558
 Symmetry not used in FoFDir.
 MinBra= 0 MaxBra= 2 Meth= 1.
 IRaf=       0 NMat=   1 IRICut=       1 DoRegI=T DoRafI=F ISym2E= 0 JSym2E=0.

 Cycle   1  Pass 1  IDiag  1:
 E= -40.4280686965500    
 DIIS: error= 4.95D-02 at cycle   1 NSaved=   1.
 NSaved= 1 IEnMin= 1 EnMin= -40.4280686965500     IErMin= 1 ErrMin= 4.95D-02
 ErrMax= 4.95D-02 EMaxC= 1.00D-01 BMatC= 8.43D-02 BMatP= 8.43D-02
 IDIUse=3 WtCom= 5.05D-01 WtEn= 4.95D-01
 Coeff-Com:  0.100D+01
 Coeff-En:   0.100D+01
 Coeff:      0.100D+01
 Gap=     0.282 Goal=   None    Shift=    0.000
 GapD=    0.282 DampG=1.000 DampE=0.500 DampFc=0.5000 IDamp=-1.
 Damping current iteration by 5.00D-01
 RMSDP=8.56D-03 MaxDP=1.53D-01              OVMax= 2.05D-01

 Cycle   2  Pass 1  IDiag  1:
 E= -40.4694646464879     Delta-E=       -0.041395949938 Rises=F Damp=T
 DIIS: error= 5.74D-03 at cycle   2 NSaved=   2.
 NSaved= 2 IEnMin= 2 EnMin= -40.4694646464879     IErMin= 2 ErrMin= 5.74D-03
 ErrMax= 5.74D-03 EMaxC= 1.00D-01 BMatC= 1.44D-03 BMatP= 8.43D-02
 IDIUse=3 WtCom= 9.43D-01 WtEn= 5.74D-02
 Coeff-Com:  0.787D-01 0.921D+00
 Coeff-En:   0.141D+00 0.859D+00
 Coeff:      0.823D-01 0.918D+00
 Gap=     0.381 Goal=   None    Shift=    0.000
 RMSDP=2.38D-03 MaxDP=3.56D-02 DE=-4.14D-02 OVMax= 1.10D-01

 Cycle   3  Pass 1  IDiag  1:
 E= -40.5205053592979     Delta-E=       -0.051040712810 Rises=F Damp=F
 DIIS: error= 2.04D-04 at cycle   3 NSaved=   3.
 NSaved= 3 IEnMin= 3 EnMin= -40.5205053592979     IErMin= 3 ErrMin= 2.04D-04
 ErrMax= 2.04D-04 EMaxC= 1.00D-01 BMatC= 2.24D-06 BMatP= 1.44D-03
 IDIUse=3 WtCom= 9.98D-01 WtEn= 2.04D-03
 Coeff-Com: -0.307D-02-0.295D-01 0.103D+01
 Coeff-En:   0.000D+00 0.000D+00 0.100D+01
 Coeff:     -0.307D-02-0.295D-01 0.103D+01
 Gap=     0.388 Goal=   None    Shift=    0.000
 RMSDP=1.74D-04 MaxDP=3.13D-03 DE=-5.10D-02 OVMax= 6.34D-04

 Cycle   4  Pass 1  IDiag  1:
 E= -40.5205072491652     Delta-E=       -0.000001889867 Rises=F Damp=F
 DIIS: error= 8.93D-05 at cycle   4 NSaved=   4.
 NSaved= 4 IEnMin= 4 EnMin= -40.5205072491652     IErMin= 4 ErrMin= 8.93D-05
 ErrMax= 8.93D-05 EMaxC= 1.00D-01 BMatC= 2.22D-07 BMatP= 2.24D-06
 IDIUse=1 WtCom= 1.00D+00 WtEn= 0.00D+00
 Coeff-Com:  0.126D-02-0.240D-02 0.605D-01 0.941D+00
 Coeff:      0.126D-02-0.240D-02 0.605D-01 0.941D+00
 Gap=     0.388 Goal=   None    Shift=    0.000
 RMSDP=7.41D-06 MaxDP=1.28D-04 DE=-1.89D-06 OVMax= 1.67D-04

 Cycle   5  Pass 1  IDiag  1:
 E= -40.5205075130942     Delta-E=       -0.000000263929 Rises=F Damp=F
 DIIS: error= 1.64D-06 at cycle   5 NSaved=   5.
 NSaved= 5 IEnMin= 5 EnMin= -40.5205075130942     IErMin= 5 ErrMin= 1.64D-06
 ErrMax= 1.64D-06 EMaxC= 1.00D-01 BMatC= 9.10D-11 BMatP= 2.22D-07
 IDIUse=1 WtCom= 1.00D+00 WtEn= 0.00D+00
 Coeff-Com: -0.103D-04 0.758D-05-0.331D-02-0.261D-01 0.103D+01
 Coeff:     -0.103D-04 0.758D-05-0.331D-02-0.261D-01 0.103D+01
 Gap=     0.388 Goal=   None    Shift=    0.000
 RMSDP=5.03D-07 MaxDP=7.48D-06 DE=-2.64D-07 OVMax= 3.27D-06

 Cycle   6  Pass 1  IDiag  1:
 E= -40.5205075131851     Delta-E=       -0.000000000091 Rises=F Damp=F
 DIIS: error= 8.62D-08 at cycle   6 NSaved=   6.
 NSaved= 6 IEnMin= 6 EnMin= -40.5205075131851     IErMin= 6 ErrMin= 8.62D-08
 ErrMax= 8.62D-08 EMaxC= 1.00D-01 BMatC= 2.65D-13 BMatP= 9.10D-11
 IDIUse=1 WtCom= 1.00D+00 WtEn= 0.00D+00
 Coeff-Com: -0.750D-06 0.373D-06-0.978D-05-0.120D-02-0.199D-01 0.102D+01
 Coeff:     -0.750D-06 0.373D-06-0.978D-05-0.120D-02-0.199D-01 0.102D+01
 Gap=     0.388 Goal=   None    Shift=    0.000
 RMSDP=1.04D-08 MaxDP=1.28D-07 DE=-9.09D-11 OVMax= 1.86D-07

 Cycle   7  Pass 1  IDiag  1:
 E= -40.5205075131851     Delta-E=        0.000000000000 Rises=F Damp=F
 DIIS: error= 3.75D-09 at cycle   7 NSaved=   7.
 NSaved= 7 IEnMin= 6 EnMin= -40.5205075131851     IErMin= 7 ErrMin= 3.75D-09
 ErrMax= 3.75D-09 EMaxC= 1.00D-01 BMatC= 5.96D-16 BMatP= 2.65D-13
 IDIUse=1 WtCom= 1.00D+00 WtEn= 0.00D+00
 Coeff-Com:  0.147D-06-0.321D-06 0.840D-05 0.141D-03-0.997D-03-0.587D-01
 Coeff-Com:  0.106D+01
 Coeff:      0.147D-06-0.321D-06 0.840D-05 0.141D-03-0.997D-03-0.587D-01
 Coeff:      0.106D+01
 Gap=     0.388 Goal=   None    Shift=    0.000
 RMSDP=9.24D-10 MaxDP=1.14D-08 DE= 0.00D+00 OVMax= 8.25D-09

 SCF Done:  E(RB3LYP) =  -40.5205075132     A.U. after    7 cycles
             Convg  =    0.9240D-09             -V/T =  2.0092
 KE= 4.015271229457D+01 PE=-1.199421082841D+02 EE= 2.583349928096D+01
 Leave Link  502 at Sat Aug 17 15:02:17 2024, MaxMem=   13107200 cpu:       3.7
 (Enter /programs/64bit/g09/g09-gfortran/bin/l601.exe)
 Copying SCF densities to generalized density rwf, IOpCl= 0 IROHF=0.

 **********************************************************************

            Population analysis using the SCF density.

 **********************************************************************

 Orbital symmetries:
       Occupied  (A1) (A1) (T2) (T2) (T2)
       Virtual   (A1) (T2) (T2) (T2) (T2) (T2) (T2) (A1) (T2) (T2)
                 (T2) (E) (E) (A1) (T2) (T2) (T2) (T1) (T1) (T1)
                 (A1) (T2) (T2) (T2) (T2) (T2) (T2) (E) (E) (T2)
                 (T2) (T2) (A1) (T2) (T2) (T2) (E) (E) (T1) (T1)
                 (T1) (A1) (T2) (T2) (T2) (T2) (T2) (T2) (E) (E)
                 (A1) (T2) (T2) (T2)
 The electronic state is 1-A1.
 Alpha  occ. eigenvalues --  -10.17016  -0.69764  -0.39460  -0.39460  -0.39460
 Alpha virt. eigenvalues --   -0.00659   0.03160   0.03160   0.03160   0.09377
 Alpha virt. eigenvalues --    0.09377   0.09377   0.10970   0.17392   0.17392
 Alpha virt. eigenvalues --    0.17392   0.20164   0.20164   0.30467   0.33704
 Alpha virt. eigenvalues --    0.33704   0.33704   0.40798   0.40798   0.40798
 Alpha virt. eigenvalues --    0.44960   0.47425   0.47425   0.47425   0.56507
 Alpha virt. eigenvalues --    0.56507   0.56507   0.59352   0.59352   0.76319
 Alpha virt. eigenvalues --    0.76319   0.76319   0.88276   1.12560   1.12560
 Alpha virt. eigenvalues --    1.12560   1.50299   1.50299   1.62663   1.62663
 Alpha virt. eigenvalues --    1.62663   1.75817   1.92294   1.92294   1.92294
 Alpha virt. eigenvalues --    2.00059   2.00059   2.00059   2.33967   2.33967
 Alpha virt. eigenvalues --    2.50128   2.57967   2.57967   2.57967
     Molecular Orbital Coefficients:
                           1         2         3         4         5
                        (A1)--O   (A1)--O   (T2)--O   (T2)--O   (T2)--O
     Eigenvalues --   -10.17016  -0.69764  -0.39460  -0.39460  -0.39460
   1 1   C  1S          0.99701  -0.18930   0.00000   0.00000   0.00000
   2        2S          0.03613   0.38512   0.00000   0.00000   0.00000
   3        3S         -0.06292   0.10185   0.00000   0.00000   0.00000
   4        4S         -0.01853   0.02673   0.00000   0.00000   0.00000
   5        5PX         0.00000   0.00000   0.44841   0.00000   0.00000
   6        5PY         0.00000   0.00000   0.00000   0.44841   0.00000
   7        5PZ         0.00000   0.00000   0.00000   0.00000   0.44841
   8        6PX         0.00000   0.00000  -0.02552   0.00000   0.00000
   9        6PY         0.00000   0.00000   0.00000  -0.02552   0.00000
  10        6PZ         0.00000   0.00000   0.00000   0.00000  -0.02552
  11        7PX         0.00000   0.00000  -0.03335   0.00000   0.00000
  12        7PY         0.00000   0.00000   0.00000  -0.03335   0.00000
  13        7PZ         0.00000   0.00000   0.00000   0.00000  -0.03335
  14        8D 0        0.00000   0.00000   0.00000   0.00000   0.00000
  15        8D+1        0.00000   0.00000   0.00000   0.02008   0.00000
  16        8D-1        0.00000   0.00000   0.02008   0.00000   0.00000
  17        8D+2        0.00000   0.00000   0.00000   0.00000   0.00000
  18        8D-2        0.00000   0.00000   0.00000   0.00000   0.02008
  19        9D 0       -0.00000  -0.00000   0.00000   0.00000   0.00000
  20        9D+1        0.00000   0.00000   0.00000  -0.06193   0.00000
  21        9D-1        0.00000   0.00000  -0.06193   0.00000   0.00000
  22        9D+2       -0.00000  -0.00000   0.00000   0.00000   0.00000
  23        9D-2        0.00000   0.00000   0.00000   0.00000  -0.06193
  24 2   H  1S         -0.00060   0.18769   0.23486   0.23486   0.23486
  25        2S          0.01577   0.04640   0.28976   0.28976   0.28976
  26        3S          0.00180  -0.00155   0.03322   0.03322   0.03322
  27        4PX         0.00101  -0.01418   0.00583  -0.00966  -0.00966
  28        4PY         0.00101  -0.01418  -0.00966   0.00583  -0.00966
  29        4PZ         0.00101  -0.01418  -0.00966  -0.00966   0.00583
  30        5PX        -0.00298  -0.01084  -0.03262  -0.03454  -0.03454
  31        5PY        -0.00298  -0.01084  -0.03454  -0.03262  -0.03454
  32        5PZ        -0.00298  -0.01084  -0.03454  -0.03454  -0.03262
  33 3   H  1S         -0.00060   0.18769  -0.23486  -0.23486   0.23486
  34        2S          0.01577   0.04640  -0.28976  -0.28976   0.28976
  35        3S          0.00180  -0.00155  -0.03322  -0.03322   0.03322
  36        4PX        -0.00101   0.01418   0.00583  -0.00966   0.00966
  37        4PY        -0.00101   0.01418  -0.00966   0.00583   0.00966
  38        4PZ         0.00101  -0.01418   0.00966   0.00966   0.00583
  39        5PX         0.00298   0.01084  -0.03262  -0.03454   0.03454
  40        5PY         0.00298   0.01084  -0.03454  -0.03262   0.03454
  41        5PZ        -0.00298  -0.01084   0.03454   0.03454  -0.03262
  42 4   H  1S         -0.00060   0.18769  -0.23486   0.23486  -0.23486
  43        2S          0.01577   0.04640  -0.28976   0.28976  -0.28976
  44        3S          0.00180  -0.00155  -0.03322   0.03322  -0.03322
  45        4PX        -0.00101   0.01418   0.00583   0.00966  -0.00966
  46        4PY         0.00101  -0.01418   0.00966   0.00583   0.00966
  47        4PZ        -0.00101   0.01418  -0.00966   0.00966   0.00583
  48        5PX         0.00298   0.01084  -0.03262   0.03454  -0.03454
  49        5PY        -0.00298  -0.01084   0.03454  -0.03262   0.03454
  50        5PZ         0.00298   0.01084  -0.03454   0.03454  -0.03262
  51 5   H  1S         -0.00060   0.18769   0.23486  -0.23486  -0.23486
  52        2S          0.01577   0.04640   0.28976  -0.28976  -0.28976
  53        3S          0.00180  -0.00155   0.03322  -0.03322  -0.03322
  54        4PX         0.00101  -0.01418   0.00583   0.00966   0.00966
  55        4PY        -0.00101   0.01418   0.00966   0.00583  -0.00966
  56        4PZ        -0.00101   0.01418   0.00966  -0.00966   0.00583
  57        5PX        -0.00298  -0.01084  -0.03262   0.03454   0.03454
  58        5PY         0.00298   0.01084   0.03454  -0.03262  -0.03454
  59        5PZ         0.00298   0.01084   0.03454  -0.03454  -0.03262
                           6         7         8         9        10
                        (A1)--V   (T2)--V   (T2)--V   (T2)--V   (T2)--V
     Eigenvalues --    -0.00659   0.03160   0.03160   0.03160   0.09377
   1 1   C  1S         -0.06302   0.00000   0.00000   0.00000   0.00000
   2        2S          0.12862   0.00000   0.00000   0.00000   0.00000
   3        3S          0.68570   0.00000   0.00000   0.00000   0.00000
   4        4S          1.75402   0.00000   0.00000   0.00000   0.00000
   5        5PX         0.00000  -0.14369   0.00000   0.00000  -0.04839
   6        5PY         0.00000   0.00000   0.00000  -0.14369   0.00000
   7        5PZ         0.00000   0.00000  -0.14369   0.00000   0.00000
   8        6PX         0.00000  -0.16550   0.00000   0.00000   1.19393
   9        6PY         0.00000   0.00000   0.00000  -0.16550   0.00000
  10        6PZ         0.00000   0.00000  -0.16550   0.00000   0.00000
  11        7PX         0.00000  -0.97642   0.00000   0.00000   3.55953
  12        7PY         0.00000   0.00000   0.00000  -0.97642   0.00000
  13        7PZ         0.00000   0.00000  -0.97642   0.00000   0.00000
  14        8D 0       -0.00000   0.00000   0.00000   0.00000   0.00000
  15        8D+1        0.00000   0.00000   0.00000  -0.00155   0.00000
  16        8D-1        0.00000  -0.00155   0.00000   0.00000  -0.02147
  17        8D+2       -0.00000   0.00000   0.00000   0.00000   0.00000
  18        8D-2        0.00000   0.00000  -0.00155   0.00000   0.00000
  19        9D 0        0.00000   0.00000   0.00000   0.00000   0.00000
  20        9D+1        0.00000   0.00000   0.00000   0.03353   0.00000
  21        9D-1        0.00000   0.03353   0.00000   0.00000   0.25625
  22        9D+2        0.00000   0.00000   0.00000   0.00000   0.00000
  23        9D-2        0.00000   0.00000   0.03353   0.00000   0.00000
  24 2   H  1S         -0.00172  -0.02124  -0.02124  -0.02124  -0.09662
  25        2S         -0.29663   0.01034   0.01034   0.01034  -1.65852
  26        3S         -0.58404   2.31610   2.31610   2.31610  -3.13802
  27        4PX        -0.00511   0.00065   0.00548   0.00548   0.01034
  28        4PY        -0.00511   0.00548   0.00548   0.00065   0.00196
  29        4PZ        -0.00511   0.00548   0.00065   0.00548   0.00196
  30        5PX         0.00801   0.05928  -0.00891  -0.00891   0.17415
  31        5PY         0.00801  -0.00891  -0.00891   0.05928   0.17921
  32        5PZ         0.00801  -0.00891   0.05928  -0.00891   0.17921
  33 3   H  1S         -0.00172   0.02124  -0.02124   0.02124   0.09662
  34        2S         -0.29663  -0.01034   0.01034  -0.01034   1.65852
  35        3S         -0.58404  -2.31610   2.31610  -2.31610   3.13802
  36        4PX         0.00511   0.00065  -0.00548   0.00548   0.01034
  37        4PY         0.00511   0.00548  -0.00548   0.00065   0.00196
  38        4PZ        -0.00511  -0.00548   0.00065  -0.00548  -0.00196
  39        5PX        -0.00801   0.05928   0.00891  -0.00891   0.17415
  40        5PY        -0.00801  -0.00891   0.00891   0.05928   0.17921
  41        5PZ         0.00801   0.00891   0.05928   0.00891  -0.17921
  42 4   H  1S         -0.00172   0.02124   0.02124  -0.02124   0.09662
  43        2S         -0.29663  -0.01034  -0.01034   0.01034   1.65852
  44        3S         -0.58404  -2.31610  -2.31610   2.31610   3.13802
  45        4PX         0.00511   0.00065   0.00548  -0.00548   0.01034
  46        4PY        -0.00511  -0.00548  -0.00548   0.00065  -0.00196
  47        4PZ         0.00511   0.00548   0.00065  -0.00548   0.00196
  48        5PX        -0.00801   0.05928  -0.00891   0.00891   0.17415
  49        5PY         0.00801   0.00891   0.00891   0.05928  -0.17921
  50        5PZ        -0.00801  -0.00891   0.05928   0.00891   0.17921
  51 5   H  1S         -0.00172  -0.02124   0.02124   0.02124  -0.09662
  52        2S         -0.29663   0.01034  -0.01034  -0.01034  -1.65852
  53        3S         -0.58404   2.31610  -2.31610  -2.31610  -3.13802
  54        4PX        -0.00511   0.00065  -0.00548  -0.00548   0.01034
  55        4PY         0.00511  -0.00548   0.00548   0.00065  -0.00196
  56        4PZ         0.00511  -0.00548   0.00065   0.00548  -0.00196
  57        5PX         0.00801   0.05928   0.00891   0.00891   0.17415
  58        5PY        -0.00801   0.00891  -0.00891   0.05928  -0.17921
  59        5PZ        -0.00801   0.00891   0.05928  -0.00891  -0.17921
                          11        12        13        14        15
                        (T2)--V   (T2)--V   (A1)--V   (T2)--V   (T2)--V
     Eigenvalues --     0.09377   0.09377   0.10970   0.17392   0.17392
   1 1   C  1S          0.00000   0.00000   0.05994   0.00000   0.00000
   2        2S          0.00000   0.00000  -0.30039   0.00000   0.00000
   3        3S          0.00000   0.00000   1.70358   0.00000   0.00000
   4        4S          0.00000   0.00000   7.32803   0.00000   0.00000
   5        5PX         0.00000   0.00000   0.00000   0.36825   0.00000
   6        5PY         0.00000  -0.04839   0.00000   0.00000   0.00000
   7        5PZ        -0.04839   0.00000   0.00000   0.00000   0.36825
   8        6PX         0.00000   0.00000   0.00000   0.34896   0.00000
   9        6PY         0.00000   1.19393   0.00000   0.00000   0.00000
  10        6PZ         1.19393   0.00000   0.00000   0.00000   0.34896
  11        7PX         0.00000   0.00000   0.00000  -1.70131   0.00000
  12        7PY         0.00000   3.55953   0.00000   0.00000   0.00000
  13        7PZ         3.55953   0.00000   0.00000   0.00000  -1.70131
  14        8D 0        0.00000   0.00000  -0.00000   0.00000   0.00000
  15        8D+1        0.00000  -0.02147   0.00000   0.00000   0.00000
  16        8D-1        0.00000   0.00000   0.00000  -0.04059   0.00000
  17        8D+2        0.00000   0.00000  -0.00000   0.00000   0.00000
  18        8D-2       -0.02147   0.00000   0.00000   0.00000  -0.04059
  19        9D 0        0.00000   0.00000   0.00000   0.00000   0.00000
  20        9D+1        0.00000   0.25625   0.00000   0.00000   0.00000
  21        9D-1        0.00000   0.00000   0.00000   0.07333   0.00000
  22        9D+2        0.00000   0.00000   0.00000   0.00000   0.00000
  23        9D-2        0.25625   0.00000   0.00000   0.00000   0.07333
  24 2   H  1S         -0.09662  -0.09662   0.02017  -0.09008  -0.09008
  25        2S         -1.65852  -1.65852  -1.17222  -0.53761  -0.53761
  26        3S         -3.13802  -3.13802  -1.23399   2.20111   2.20111
  27        4PX         0.00196   0.00196   0.01608   0.00041  -0.00920
  28        4PY         0.00196   0.01034   0.01608  -0.00920  -0.00920
  29        4PZ         0.01034   0.00196   0.01608  -0.00920   0.00041
  30        5PX         0.17921   0.17921   0.19329   0.08344  -0.20973
  31        5PY         0.17921   0.17415   0.19329  -0.20973  -0.20973
  32        5PZ         0.17415   0.17921   0.19329  -0.20973   0.08344
  33 3   H  1S         -0.09662   0.09662   0.02017   0.09008  -0.09008
  34        2S         -1.65852   1.65852  -1.17222   0.53761  -0.53761
  35        3S         -3.13802   3.13802  -1.23399  -2.20111   2.20111
  36        4PX        -0.00196   0.00196  -0.01608   0.00041   0.00920
  37        4PY        -0.00196   0.01034  -0.01608  -0.00920   0.00920
  38        4PZ         0.01034  -0.00196   0.01608   0.00920   0.00041
  39        5PX        -0.17921   0.17921  -0.19329   0.08344   0.20973
  40        5PY        -0.17921   0.17415  -0.19329  -0.20973   0.20973
  41        5PZ         0.17415  -0.17921   0.19329   0.20973   0.08344
  42 4   H  1S          0.09662  -0.09662   0.02017   0.09008   0.09008
  43        2S          1.65852  -1.65852  -1.17222   0.53761   0.53761
  44        3S          3.13802  -3.13802  -1.23399  -2.20111  -2.20111
  45        4PX         0.00196  -0.00196  -0.01608   0.00041  -0.00920
  46        4PY        -0.00196   0.01034   0.01608   0.00920   0.00920
  47        4PZ         0.01034  -0.00196  -0.01608  -0.00920   0.00041
  48        5PX         0.17921  -0.17921  -0.19329   0.08344  -0.20973
  49        5PY        -0.17921   0.17415   0.19329   0.20973   0.20973
  50        5PZ         0.17415  -0.17921  -0.19329  -0.20973   0.08344
  51 5   H  1S          0.09662   0.09662   0.02017  -0.09008   0.09008
  52        2S          1.65852   1.65852  -1.17222  -0.53761   0.53761
  53        3S          3.13802   3.13802  -1.23399   2.20111  -2.20111
  54        4PX        -0.00196  -0.00196   0.01608   0.00041   0.00920
  55        4PY         0.00196   0.01034  -0.01608   0.00920  -0.00920
  56        4PZ         0.01034   0.00196  -0.01608   0.00920   0.00041
  57        5PX        -0.17921  -0.17921   0.19329   0.08344   0.20973
  58        5PY         0.17921   0.17415  -0.19329   0.20973  -0.20973
  59        5PZ         0.17415   0.17921  -0.19329   0.20973   0.08344
                          16        17        18        19        20
                        (T2)--V   (E)--V    (E)--V    (A1)--V   (T2)--V
     Eigenvalues --     0.17392   0.20164   0.20164   0.30467   0.33704
   1 1   C  1S          0.00000  -0.00000  -0.00000  -0.09504   0.00000
   2        2S          0.00000   0.00000  -0.00000   0.16254   0.00000
   3        3S          0.00000   0.00000   0.00000   1.11573   0.00000
   4        4S          0.00000   0.00000   0.00000   7.59221   0.00000
   5        5PX         0.00000   0.00000   0.00000   0.00000  -0.15418
   6        5PY         0.36825   0.00000   0.00000   0.00000   0.00000
   7        5PZ         0.00000   0.00000   0.00000   0.00000   0.00000
   8        6PX         0.00000   0.00000   0.00000   0.00000  -4.18583
   9        6PY         0.34896   0.00000   0.00000   0.00000   0.00000
  10        6PZ         0.00000   0.00000   0.00000   0.00000   0.00000
  11        7PX         0.00000   0.00000   0.00000   0.00000  -3.20313
  12        7PY        -1.70131   0.00000   0.00000   0.00000   0.00000
  13        7PZ         0.00000   0.00000   0.00000   0.00000   0.00000
  14        8D 0        0.00000  -0.07507  -0.03596  -0.00000   0.00000
  15        8D+1       -0.04059   0.00000   0.00000   0.00000   0.00000
  16        8D-1        0.00000   0.00000   0.00000   0.00000  -0.07417
  17        8D+2        0.00000   0.03596  -0.07507   0.00000   0.00000
  18        8D-2        0.00000   0.00000   0.00000   0.00000   0.00000
  19        9D 0        0.00000   0.93420   0.44750   0.00000   0.00000
  20        9D+1        0.07333   0.00000   0.00000   0.00000   0.00000
  21        9D-1        0.00000   0.00000   0.00000   0.00000  -0.93141
  22        9D+2        0.00000  -0.44750   0.93420   0.00000   0.00000
  23        9D-2        0.00000   0.00000   0.00000   0.00000   0.00000
  24 2   H  1S         -0.09008  -0.00000  -0.00000  -0.12285  -0.06965
  25        2S         -0.53761  -0.00000  -0.00000  -1.98275   4.33990
  26        3S          2.20111   0.00000  -0.00000  -0.78431   1.90079
  27        4PX        -0.00920   0.01108  -0.00759   0.00208   0.00265
  28        4PY         0.00041   0.00103   0.01339   0.00208  -0.01569
  29        4PZ        -0.00920  -0.01211  -0.00580   0.00208  -0.01569
  30        5PX        -0.20973   0.68328  -0.46794  -0.18639  -0.11901
  31        5PY         0.08344   0.06360   0.82571  -0.18639  -0.76259
  32        5PZ        -0.20973  -0.74689  -0.35777  -0.18639  -0.76259
  33 3   H  1S          0.09008  -0.00000  -0.00000  -0.12285   0.06965
  34        2S          0.53761  -0.00000  -0.00000  -1.98275  -4.33990
  35        3S         -2.20111   0.00000  -0.00000  -0.78431  -1.90079
  36        4PX        -0.00920  -0.01108   0.00759  -0.00208   0.00265
  37        4PY         0.00041  -0.00103  -0.01339  -0.00208  -0.01569
  38        4PZ         0.00920  -0.01211  -0.00580   0.00208   0.01569
  39        5PX        -0.20973  -0.68328   0.46794   0.18639  -0.11901
  40        5PY         0.08344  -0.06360  -0.82571   0.18639  -0.76259
  41        5PZ         0.20973  -0.74689  -0.35777  -0.18639   0.76259
  42 4   H  1S         -0.09008  -0.00000  -0.00000  -0.12285   0.06965
  43        2S         -0.53761  -0.00000  -0.00000  -1.98275  -4.33990
  44        3S          2.20111   0.00000  -0.00000  -0.78431  -1.90079
  45        4PX         0.00920  -0.01108   0.00759  -0.00208   0.00265
  46        4PY         0.00041   0.00103   0.01339   0.00208   0.01569
  47        4PZ         0.00920   0.01211   0.00580  -0.00208  -0.01569
  48        5PX         0.20973  -0.68328   0.46794   0.18639  -0.11901
  49        5PY         0.08344   0.06360   0.82571  -0.18639   0.76259
  50        5PZ         0.20973   0.74689   0.35777   0.18639  -0.76259
  51 5   H  1S          0.09008  -0.00000  -0.00000  -0.12285  -0.06965
  52        2S          0.53761  -0.00000  -0.00000  -1.98275   4.33990
  53        3S         -2.20111   0.00000  -0.00000  -0.78431   1.90079
  54        4PX         0.00920   0.01108  -0.00759   0.00208   0.00265
  55        4PY         0.00041  -0.00103  -0.01339  -0.00208   0.01569
  56        4PZ        -0.00920   0.01211   0.00580  -0.00208   0.01569
  57        5PX         0.20973   0.68328  -0.46794  -0.18639  -0.11901
  58        5PY         0.08344  -0.06360  -0.82571   0.18639   0.76259
  59        5PZ        -0.20973   0.74689   0.35777   0.18639   0.76259
                          21        22        23        24        25
                        (T2)--V   (T2)--V   (T1)--V   (T1)--V   (T1)--V
     Eigenvalues --     0.33704   0.33704   0.40798   0.40798   0.40798
   1 1   C  1S          0.00000   0.00000   0.00000   0.00000   0.00000
   2        2S          0.00000   0.00000   0.00000   0.00000   0.00000
   3        3S          0.00000   0.00000   0.00000   0.00000   0.00000
   4        4S          0.00000   0.00000   0.00000   0.00000   0.00000
   5        5PX         0.00000   0.00000   0.00000   0.00000   0.00000
   6        5PY         0.00000  -0.15418   0.00000   0.00000   0.00000
   7        5PZ        -0.15418   0.00000   0.00000   0.00000   0.00000
   8        6PX         0.00000   0.00000  -0.00000   0.00000   0.00000
   9        6PY         0.00000  -4.18583   0.00000  -0.00000   0.00000
  10        6PZ        -4.18583   0.00000   0.00000   0.00000  -0.00000
  11        7PX         0.00000   0.00000  -0.00000   0.00000   0.00000
  12        7PY         0.00000  -3.20313   0.00000   0.00000   0.00000
  13        7PZ        -3.20313   0.00000   0.00000   0.00000   0.00000
  14        8D 0        0.00000   0.00000   0.00000   0.00000   0.00000
  15        8D+1        0.00000  -0.07417   0.00000   0.00000   0.00000
  16        8D-1        0.00000   0.00000  -0.00000   0.00000   0.00000
  17        8D+2        0.00000   0.00000   0.00000   0.00000   0.00000
  18        8D-2       -0.07417   0.00000   0.00000   0.00000   0.00000
  19        9D 0        0.00000   0.00000   0.00000   0.00000   0.00000
  20        9D+1        0.00000  -0.93141   0.00000  -0.00000   0.00000
  21        9D-1        0.00000   0.00000  -0.00000   0.00000   0.00000
  22        9D+2        0.00000   0.00000   0.00000   0.00000   0.00000
  23        9D-2       -0.93141   0.00000   0.00000   0.00000  -0.00000
  24 2   H  1S         -0.06965  -0.06965   0.00000   0.00000   0.00000
  25        2S          4.33990   4.33990   0.00000   0.00000   0.00000
  26        3S          1.90079   1.90079   0.00000  -0.00000  -0.00000
  27        4PX        -0.01569  -0.01569   0.00000  -0.00838  -0.00838
  28        4PY        -0.01569   0.00265  -0.00838   0.00000   0.00838
  29        4PZ         0.00265  -0.01569   0.00838   0.00838   0.00000
  30        5PX        -0.76259  -0.76259  -0.00000   0.81811   0.81811
  31        5PY        -0.76259  -0.11901   0.81811  -0.00000  -0.81811
  32        5PZ        -0.11901  -0.76259  -0.81811  -0.81811  -0.00000
  33 3   H  1S         -0.06965   0.06965  -0.00000  -0.00000   0.00000
  34        2S          4.33990  -4.33990  -0.00000  -0.00000   0.00000
  35        3S          1.90079  -1.90079  -0.00000   0.00000  -0.00000
  36        4PX         0.01569  -0.01569   0.00000  -0.00838   0.00838
  37        4PY         0.01569   0.00265  -0.00838   0.00000  -0.00838
  38        4PZ         0.00265   0.01569  -0.00838  -0.00838   0.00000
  39        5PX         0.76259  -0.76259  -0.00000   0.81811  -0.81811
  40        5PY         0.76259  -0.11901   0.81811  -0.00000   0.81811
  41        5PZ        -0.11901   0.76259   0.81811   0.81811  -0.00000
  42 4   H  1S          0.06965  -0.06965  -0.00000   0.00000  -0.00000
  43        2S         -4.33990   4.33990  -0.00000   0.00000  -0.00000
  44        3S         -1.90079   1.90079  -0.00000  -0.00000   0.00000
  45        4PX        -0.01569   0.01569   0.00000   0.00838  -0.00838
  46        4PY         0.01569   0.00265   0.00838   0.00000  -0.00838
  47        4PZ         0.00265   0.01569   0.00838  -0.00838   0.00000
  48        5PX        -0.76259   0.76259  -0.00000  -0.81811   0.81811
  49        5PY         0.76259  -0.11901  -0.81811  -0.00000   0.81811
  50        5PZ        -0.11901   0.76259  -0.81811   0.81811  -0.00000
  51 5   H  1S          0.06965   0.06965   0.00000  -0.00000  -0.00000
  52        2S         -4.33990  -4.33990   0.00000  -0.00000  -0.00000
  53        3S         -1.90079  -1.90079   0.00000   0.00000   0.00000
  54        4PX         0.01569   0.01569   0.00000   0.00838   0.00838
  55        4PY        -0.01569   0.00265   0.00838   0.00000   0.00838
  56        4PZ         0.00265  -0.01569  -0.00838   0.00838   0.00000
  57        5PX         0.76259   0.76259  -0.00000  -0.81811  -0.81811
  58        5PY        -0.76259  -0.11901  -0.81811  -0.00000  -0.81811
  59        5PZ        -0.11901  -0.76259   0.81811  -0.81811  -0.00000
                          26        27        28        29        30
                        (A1)--V   (T2)--V   (T2)--V   (T2)--V   (T2)--V
     Eigenvalues --     0.44960   0.47425   0.47425   0.47425   0.56507
   1 1   C  1S         -0.15108   0.00000   0.00000   0.00000   0.00000
   2        2S         -0.02326   0.00000   0.00000   0.00000   0.00000
   3        3S         11.19146   0.00000   0.00000   0.00000   0.00000
   4        4S          6.35598   0.00000   0.00000   0.00000   0.00000
   5        5PX         0.00000   0.00000   0.27873   0.00000   0.00000
   6        5PY         0.00000   0.00000   0.00000   0.27873   0.00000
   7        5PZ         0.00000   0.27873   0.00000   0.00000   0.17632
   8        6PX         0.00000   0.00000   3.06996   0.00000   0.00000
   9        6PY         0.00000   0.00000   0.00000   3.06996   0.00000
  10        6PZ         0.00000   3.06996   0.00000   0.00000  -7.12345
  11        7PX         0.00000   0.00000   1.17271   0.00000   0.00000
  12        7PY         0.00000   0.00000   0.00000   1.17271   0.00000
  13        7PZ         0.00000   1.17271   0.00000   0.00000   0.32717
  14        8D 0       -0.00000   0.00000   0.00000   0.00000   0.00000
  15        8D+1        0.00000   0.00000   0.00000   0.01179   0.00000
  16        8D-1        0.00000   0.00000   0.01179   0.00000   0.00000
  17        8D+2       -0.00000   0.00000   0.00000   0.00000   0.00000
  18        8D-2        0.00000   0.01179   0.00000   0.00000  -0.02827
  19        9D 0        0.00000   0.00000   0.00000   0.00000   0.00000
  20        9D+1        0.00000   0.00000   0.00000  -1.66638   0.00000
  21        9D-1        0.00000   0.00000  -1.66638   0.00000   0.00000
  22        9D+2        0.00000   0.00000   0.00000   0.00000   0.00000
  23        9D-2        0.00000  -1.66638   0.00000   0.00000  -2.25764
  24 2   H  1S         -0.02623  -0.11782  -0.11782  -0.11782  -0.06330
  25        2S         -3.61779  -1.45776  -1.45776  -1.45776  10.81807
  26        3S         -0.74284  -1.10831  -1.10831  -1.10831  -0.44040
  27        4PX         0.00027  -0.00406   0.00563  -0.00406  -0.02349
  28        4PY         0.00027  -0.00406  -0.00406   0.00563  -0.02349
  29        4PZ         0.00027   0.00563  -0.00406  -0.00406   0.01791
  30        5PX         0.92628   1.11166  -0.11988   1.11166  -1.93839
  31        5PY         0.92628   1.11166   1.11166  -0.11988  -1.93839
  32        5PZ         0.92628  -0.11988   1.11166   1.11166  -3.68887
  33 3   H  1S         -0.02623  -0.11782   0.11782   0.11782  -0.06330
  34        2S         -3.61779  -1.45776   1.45776   1.45776  10.81807
  35        3S         -0.74284  -1.10831   1.10831   1.10831  -0.44040
  36        4PX        -0.00027   0.00406   0.00563  -0.00406   0.02349
  37        4PY        -0.00027   0.00406  -0.00406   0.00563   0.02349
  38        4PZ         0.00027   0.00563   0.00406   0.00406   0.01791
  39        5PX        -0.92628  -1.11166  -0.11988   1.11166   1.93839
  40        5PY        -0.92628  -1.11166   1.11166  -0.11988   1.93839
  41        5PZ         0.92628  -0.11988  -1.11166  -1.11166  -3.68887
  42 4   H  1S         -0.02623   0.11782   0.11782  -0.11782   0.06330
  43        2S         -3.61779   1.45776   1.45776  -1.45776 -10.81807
  44        3S         -0.74284   1.10831   1.10831  -1.10831   0.44040
  45        4PX        -0.00027  -0.00406   0.00563   0.00406  -0.02349
  46        4PY         0.00027   0.00406   0.00406   0.00563   0.02349
  47        4PZ        -0.00027   0.00563  -0.00406   0.00406   0.01791
  48        5PX        -0.92628   1.11166  -0.11988  -1.11166  -1.93839
  49        5PY         0.92628  -1.11166  -1.11166  -0.11988   1.93839
  50        5PZ        -0.92628  -0.11988   1.11166  -1.11166  -3.68887
  51 5   H  1S         -0.02623   0.11782  -0.11782   0.11782   0.06330
  52        2S         -3.61779   1.45776  -1.45776   1.45776 -10.81807
  53        3S         -0.74284   1.10831  -1.10831   1.10831   0.44040
  54        4PX         0.00027   0.00406   0.00563   0.00406   0.02349
  55        4PY        -0.00027  -0.00406   0.00406   0.00563  -0.02349
  56        4PZ        -0.00027   0.00563   0.00406  -0.00406   0.01791
  57        5PX         0.92628  -1.11166  -0.11988  -1.11166   1.93839
  58        5PY        -0.92628   1.11166  -1.11166  -0.11988  -1.93839
  59        5PZ        -0.92628  -0.11988  -1.11166   1.11166  -3.68887
                          31        32        33        34        35
                        (T2)--V   (T2)--V   (E)--V    (E)--V    (T2)--V
     Eigenvalues --     0.56507   0.56507   0.59352   0.59352   0.76319
   1 1   C  1S          0.00000   0.00000   0.00000   0.00000   0.00000
   2        2S          0.00000   0.00000  -0.00000  -0.00000   0.00000
   3        3S          0.00000   0.00000  -0.00000  -0.00000   0.00000
   4        4S          0.00000   0.00000  -0.00000  -0.00000   0.00000
   5        5PX         0.00000   0.17632   0.00000   0.00000   0.00000
   6        5PY         0.17632   0.00000   0.00000   0.00000   0.00000
   7        5PZ         0.00000   0.00000   0.00000   0.00000  -0.78171
   8        6PX         0.00000  -7.12345   0.00000   0.00000   0.00000
   9        6PY        -7.12345   0.00000   0.00000   0.00000   0.00000
  10        6PZ         0.00000   0.00000   0.00000   0.00000   2.16750
  11        7PX         0.00000   0.32717   0.00000   0.00000   0.00000
  12        7PY         0.32717   0.00000   0.00000   0.00000   0.00000
  13        7PZ         0.00000   0.00000   0.00000   0.00000   0.31671
  14        8D 0        0.00000   0.00000   0.00691   0.00361   0.00000
  15        8D+1       -0.02827   0.00000   0.00000   0.00000   0.00000
  16        8D-1        0.00000  -0.02827   0.00000   0.00000   0.00000
  17        8D+2        0.00000   0.00000  -0.00361   0.00691   0.00000
  18        8D-2        0.00000   0.00000   0.00000   0.00000   0.31331
  19        9D 0        0.00000   0.00000   3.50886   1.83380   0.00000
  20        9D+1       -2.25764   0.00000   0.00000   0.00000   0.00000
  21        9D-1        0.00000  -2.25764   0.00000   0.00000   0.00000
  22        9D+2        0.00000   0.00000  -1.83380   3.50886   0.00000
  23        9D-2        0.00000   0.00000   0.00000   0.00000  -1.55850
  24 2   H  1S         -0.06330  -0.06330   0.00000   0.00000   0.28969
  25        2S         10.81807  10.81807   0.00000   0.00000   0.33408
  26        3S         -0.44040  -0.44040   0.00000   0.00000   0.11280
  27        4PX        -0.02349   0.01791  -0.01492   0.00947   0.11611
  28        4PY         0.01791  -0.02349  -0.00074  -0.01766   0.11611
  29        4PZ        -0.02349  -0.02349   0.01567   0.00819   0.04459
  30        5PX        -1.93839  -3.68887   1.33001  -0.84429   0.16393
  31        5PY        -3.68887  -1.93839   0.06618   1.57397   0.16393
  32        5PZ        -1.93839  -1.93839  -1.39618  -0.72967  -1.01378
  33 3   H  1S          0.06330   0.06330   0.00000   0.00000   0.28969
  34        2S        -10.81807 -10.81807   0.00000   0.00000   0.33408
  35        3S          0.44040   0.44040   0.00000   0.00000   0.11280
  36        4PX        -0.02349   0.01791   0.01492  -0.00947  -0.11611
  37        4PY         0.01791  -0.02349   0.00074   0.01766  -0.11611
  38        4PZ         0.02349   0.02349   0.01567   0.00819   0.04459
  39        5PX        -1.93839  -3.68887  -1.33001   0.84429  -0.16393
  40        5PY        -3.68887  -1.93839  -0.06618  -1.57397  -0.16393
  41        5PZ         1.93839   1.93839  -1.39618  -0.72967  -1.01378
  42 4   H  1S         -0.06330   0.06330   0.00000   0.00000  -0.28969
  43        2S         10.81807 -10.81807   0.00000   0.00000  -0.33408
  44        3S         -0.44040   0.44040   0.00000   0.00000  -0.11280
  45        4PX         0.02349   0.01791   0.01492  -0.00947   0.11611
  46        4PY         0.01791   0.02349  -0.00074  -0.01766  -0.11611
  47        4PZ         0.02349  -0.02349  -0.01567  -0.00819   0.04459
  48        5PX         1.93839  -3.68887  -1.33001   0.84429   0.16393
  49        5PY        -3.68887   1.93839   0.06618   1.57397  -0.16393
  50        5PZ         1.93839  -1.93839   1.39618   0.72967  -1.01378
  51 5   H  1S          0.06330  -0.06330   0.00000   0.00000  -0.28969
  52        2S        -10.81807  10.81807   0.00000   0.00000  -0.33408
  53        3S          0.44040  -0.44040   0.00000   0.00000  -0.11280
  54        4PX         0.02349   0.01791  -0.01492   0.00947  -0.11611
  55        4PY         0.01791   0.02349   0.00074   0.01766   0.11611
  56        4PZ        -0.02349   0.02349  -0.01567  -0.00819   0.04459
  57        5PX         1.93839  -3.68887   1.33001  -0.84429  -0.16393
  58        5PY        -3.68887   1.93839  -0.06618  -1.57397   0.16393
  59        5PZ        -1.93839   1.93839   1.39618   0.72967  -1.01378
                          36        37        38        39        40
                        (T2)--V   (T2)--V   (A1)--V   (T2)--V   (T2)--V
     Eigenvalues --     0.76319   0.76319   0.88276   1.12560   1.12560
   1 1   C  1S          0.00000   0.00000   0.05643   0.00000   0.00000
   2        2S          0.00000   0.00000  -0.62212   0.00000   0.00000
   3        3S          0.00000   0.00000   2.32080   0.00000   0.00000
   4        4S          0.00000   0.00000   5.38517   0.00000   0.00000
   5        5PX         0.00000  -0.78171   0.00000  -0.61133   0.00000
   6        5PY        -0.78171   0.00000   0.00000   0.00000   0.00000
   7        5PZ         0.00000   0.00000   0.00000   0.00000  -0.61133
   8        6PX         0.00000   2.16750   0.00000   7.88330   0.00000
   9        6PY         2.16750   0.00000   0.00000   0.00000   0.00000
  10        6PZ         0.00000   0.00000   0.00000   0.00000   7.88330
  11        7PX         0.00000   0.31671   0.00000   1.73534   0.00000
  12        7PY         0.31671   0.00000   0.00000   0.00000   0.00000
  13        7PZ         0.00000   0.00000   0.00000   0.00000   1.73534
  14        8D 0        0.00000   0.00000  -0.00000   0.00000   0.00000
  15        8D+1        0.31331   0.00000   0.00000   0.00000   0.00000
  16        8D-1        0.00000   0.31331   0.00000  -0.41794   0.00000
  17        8D+2        0.00000   0.00000  -0.00000   0.00000   0.00000
  18        8D-2        0.00000   0.00000   0.00000   0.00000  -0.41794
  19        9D 0        0.00000   0.00000  -0.00000   0.00000   0.00000
  20        9D+1       -1.55850   0.00000   0.00000   0.00000   0.00000
  21        9D-1        0.00000  -1.55850   0.00000   2.37041   0.00000
  22        9D+2        0.00000   0.00000  -0.00000   0.00000   0.00000
  23        9D-2        0.00000   0.00000   0.00000   0.00000   2.37041
  24 2   H  1S          0.28969   0.28969   0.73196  -0.58638  -0.58638
  25        2S          0.33408   0.33408  -2.13119  -6.60191  -6.60191
  26        3S          0.11280   0.11280  -0.49609  -0.90627  -0.90627
  27        4PX         0.11611   0.04459   0.09047   0.10760  -0.02528
  28        4PY         0.04459   0.11611   0.09047  -0.02528  -0.02528
  29        4PZ         0.11611   0.11611   0.09047  -0.02528   0.10760
  30        5PX         0.16393  -1.01378  -0.02874   0.85277   1.06524
  31        5PY        -1.01378   0.16393  -0.02874   1.06524   1.06524
  32        5PZ         0.16393   0.16393  -0.02874   1.06524   0.85277
  33 3   H  1S         -0.28969  -0.28969   0.73196   0.58638  -0.58638
  34        2S         -0.33408  -0.33408  -2.13119   6.60191  -6.60191
  35        3S         -0.11280  -0.11280  -0.49609   0.90627  -0.90627
  36        4PX         0.11611   0.04459  -0.09047   0.10760   0.02528
  37        4PY         0.04459   0.11611  -0.09047  -0.02528   0.02528
  38        4PZ        -0.11611  -0.11611   0.09047   0.02528   0.10760
  39        5PX         0.16393  -1.01378   0.02874   0.85277  -1.06524
  40        5PY        -1.01378   0.16393   0.02874   1.06524  -1.06524
  41        5PZ        -0.16393  -0.16393  -0.02874  -1.06524   0.85277
  42 4   H  1S          0.28969  -0.28969   0.73196   0.58638   0.58638
  43        2S          0.33408  -0.33408  -2.13119   6.60191   6.60191
  44        3S          0.11280  -0.11280  -0.49609   0.90627   0.90627
  45        4PX        -0.11611   0.04459  -0.09047   0.10760  -0.02528
  46        4PY         0.04459  -0.11611   0.09047   0.02528   0.02528
  47        4PZ        -0.11611   0.11611  -0.09047  -0.02528   0.10760
  48        5PX        -0.16393  -1.01378   0.02874   0.85277   1.06524
  49        5PY        -1.01378  -0.16393  -0.02874  -1.06524  -1.06524
  50        5PZ        -0.16393   0.16393   0.02874   1.06524   0.85277
  51 5   H  1S         -0.28969   0.28969   0.73196  -0.58638   0.58638
  52        2S         -0.33408   0.33408  -2.13119  -6.60191   6.60191
  53        3S         -0.11280   0.11280  -0.49609  -0.90627   0.90627
  54        4PX        -0.11611   0.04459   0.09047   0.10760   0.02528
  55        4PY         0.04459  -0.11611  -0.09047   0.02528  -0.02528
  56        4PZ         0.11611  -0.11611  -0.09047   0.02528   0.10760
  57        5PX        -0.16393  -1.01378  -0.02874   0.85277  -1.06524
  58        5PY        -1.01378  -0.16393   0.02874  -1.06524   1.06524
  59        5PZ         0.16393  -0.16393   0.02874  -1.06524   0.85277
                          41        42        43        44        45
                        (T2)--V   (E)--V    (E)--V    (T1)--V   (T1)--V
     Eigenvalues --     1.12560   1.50299   1.50299   1.62663   1.62663
   1 1   C  1S          0.00000  -0.00000  -0.00000   0.00000   0.00000
   2        2S          0.00000  -0.00000  -0.00000   0.00000   0.00000
   3        3S          0.00000   0.00000   0.00000   0.00000   0.00000
   4        4S          0.00000   0.00000   0.00000   0.00000   0.00000
   5        5PX         0.00000  -0.00000   0.00000  -0.00000   0.00000
   6        5PY        -0.61133  -0.00000   0.00000   0.00000  -0.00000
   7        5PZ         0.00000  -0.00000   0.00000   0.00000   0.00000
   8        6PX         0.00000  -0.00000   0.00000  -0.00000   0.00000
   9        6PY         7.88330  -0.00000   0.00000   0.00000  -0.00000
  10        6PZ         0.00000  -0.00000   0.00000   0.00000   0.00000
  11        7PX         0.00000  -0.00000   0.00000  -0.00000   0.00000
  12        7PY         1.73534  -0.00000   0.00000   0.00000  -0.00000
  13        7PZ         0.00000  -0.00000   0.00000   0.00000   0.00000
  14        8D 0        0.00000  -0.77555  -0.51549   0.00000   0.00000
  15        8D+1       -0.41794  -0.00000   0.00000   0.00000   0.00000
  16        8D-1        0.00000  -0.00000   0.00000   0.00000   0.00000
  17        8D+2        0.00000   0.51549  -0.77555   0.00000   0.00000
  18        8D-2        0.00000  -0.00000   0.00000   0.00000   0.00000
  19        9D 0        0.00000   2.70739   1.79953   0.00000   0.00000
  20        9D+1        2.37041  -0.00000   0.00000   0.00000  -0.00000
  21        9D-1        0.00000  -0.00000   0.00000  -0.00000   0.00000
  22        9D+2        0.00000  -1.79953   2.70739   0.00000   0.00000
  23        9D-2        0.00000  -0.00000   0.00000   0.00000   0.00000
  24 2   H  1S         -0.58638  -0.00000  -0.00000  -0.00000  -0.00000
  25        2S         -6.60191  -0.00000  -0.00000   0.00000   0.00000
  26        3S         -0.90627  -0.00000  -0.00000  -0.00000   0.00000
  27        4PX        -0.02528   0.21618  -0.10726  -0.00000   0.40942
  28        4PY         0.10760  -0.01520   0.24085   0.40942  -0.00000
  29        4PZ        -0.02528  -0.20098  -0.13359  -0.40942  -0.40942
  30        5PX         1.06524   0.91948  -0.45622  -0.00000  -0.37140
  31        5PY         0.85277  -0.06465   1.02440  -0.37140  -0.00000
  32        5PZ         1.06524  -0.85484  -0.56819   0.37140   0.37140
  33 3   H  1S          0.58638  -0.00000  -0.00000   0.00000   0.00000
  34        2S          6.60191  -0.00000  -0.00000  -0.00000  -0.00000
  35        3S          0.90627  -0.00000  -0.00000   0.00000  -0.00000
  36        4PX        -0.02528  -0.21618   0.10726  -0.00000   0.40942
  37        4PY         0.10760   0.01520  -0.24085   0.40942  -0.00000
  38        4PZ         0.02528  -0.20098  -0.13359   0.40942   0.40942
  39        5PX         1.06524  -0.91948   0.45622  -0.00000  -0.37140
  40        5PY         0.85277   0.06465  -1.02440  -0.37140  -0.00000
  41        5PZ        -1.06524  -0.85484  -0.56819  -0.37140  -0.37140
  42 4   H  1S         -0.58638  -0.00000  -0.00000   0.00000  -0.00000
  43        2S         -6.60191  -0.00000  -0.00000  -0.00000   0.00000
  44        3S         -0.90627  -0.00000  -0.00000   0.00000   0.00000
  45        4PX         0.02528  -0.21618   0.10726  -0.00000  -0.40942
  46        4PY         0.10760  -0.01520   0.24085  -0.40942  -0.00000
  47        4PZ         0.02528   0.20098   0.13359  -0.40942   0.40942
  48        5PX        -1.06524  -0.91948   0.45622  -0.00000   0.37140
  49        5PY         0.85277  -0.06465   1.02440   0.37140  -0.00000
  50        5PZ        -1.06524   0.85484   0.56819   0.37140  -0.37140
  51 5   H  1S          0.58638  -0.00000  -0.00000  -0.00000   0.00000
  52        2S          6.60191  -0.00000  -0.00000   0.00000  -0.00000
  53        3S          0.90627  -0.00000  -0.00000  -0.00000  -0.00000
  54        4PX         0.02528   0.21618  -0.10726  -0.00000  -0.40942
  55        4PY         0.10760   0.01520  -0.24085  -0.40942  -0.00000
  56        4PZ        -0.02528   0.20098   0.13359   0.40942  -0.40942
  57        5PX        -1.06524   0.91948  -0.45622  -0.00000   0.37140
  58        5PY         0.85277   0.06465  -1.02440   0.37140  -0.00000
  59        5PZ         1.06524   0.85484   0.56819  -0.37140   0.37140
                          46        47        48        49        50
                        (T1)--V   (A1)--V   (T2)--V   (T2)--V   (T2)--V
     Eigenvalues --     1.62663   1.75817   1.92294   1.92294   1.92294
   1 1   C  1S          0.00000  -0.27610   0.00000   0.00000   0.00000
   2        2S          0.00000  -3.03647   0.00000   0.00000   0.00000
   3        3S          0.00000  19.53564   0.00000   0.00000   0.00000
   4        4S          0.00000   6.17717   0.00000   0.00000   0.00000
   5        5PX         0.00000   0.00000  -0.53870   0.00000   0.00000
   6        5PY         0.00000   0.00000   0.00000   0.00000  -0.53870
   7        5PZ        -0.00000   0.00000   0.00000  -0.53870   0.00000
   8        6PX         0.00000   0.00000   7.68099   0.00000   0.00000
   9        6PY         0.00000   0.00000   0.00000   0.00000   7.68099
  10        6PZ        -0.00000   0.00000   0.00000   7.68099   0.00000
  11        7PX         0.00000   0.00000   0.57733   0.00000   0.00000
  12        7PY         0.00000   0.00000   0.00000   0.00000   0.57733
  13        7PZ        -0.00000   0.00000   0.00000   0.57733   0.00000
  14        8D 0        0.00000   0.00000   0.00000   0.00000   0.00000
  15        8D+1        0.00000   0.00000   0.00000   0.00000   0.53377
  16        8D-1        0.00000   0.00000   0.53377   0.00000   0.00000
  17        8D+2        0.00000   0.00000   0.00000   0.00000   0.00000
  18        8D-2        0.00000   0.00000   0.00000   0.53377   0.00000
  19        9D 0        0.00000  -0.00000   0.00000   0.00000   0.00000
  20        9D+1        0.00000   0.00000   0.00000   0.00000   1.38021
  21        9D-1        0.00000   0.00000   1.38021   0.00000   0.00000
  22        9D+2        0.00000  -0.00000   0.00000   0.00000   0.00000
  23        9D-2       -0.00000   0.00000   0.00000   1.38021   0.00000
  24 2   H  1S         -0.00000  -0.65713  -0.75428  -0.75428  -0.75428
  25        2S          0.00000  -5.08916  -6.45466  -6.45466  -6.45466
  26        3S          0.00000  -0.59522  -0.24944  -0.24944  -0.24944
  27        4PX         0.40942   0.07287  -0.40517  -0.06387  -0.06387
  28        4PY        -0.40942   0.07287  -0.06387  -0.06387  -0.40517
  29        4PZ        -0.00000   0.07287  -0.06387  -0.40517  -0.06387
  30        5PX        -0.37140   0.97236   1.36388   1.29376   1.29376
  31        5PY         0.37140   0.97236   1.29376   1.29376   1.36388
  32        5PZ        -0.00000   0.97236   1.29376   1.36388   1.29376
  33 3   H  1S         -0.00000  -0.65713   0.75428  -0.75428   0.75428
  34        2S          0.00000  -5.08916   6.45466  -6.45466   6.45466
  35        3S          0.00000  -0.59522   0.24944  -0.24944   0.24944
  36        4PX        -0.40942  -0.07287  -0.40517   0.06387  -0.06387
  37        4PY         0.40942  -0.07287  -0.06387   0.06387  -0.40517
  38        4PZ        -0.00000   0.07287   0.06387  -0.40517   0.06387
  39        5PX         0.37140  -0.97236   1.36388  -1.29376   1.29376
  40        5PY        -0.37140  -0.97236   1.29376  -1.29376   1.36388
  41        5PZ        -0.00000   0.97236  -1.29376   1.36388  -1.29376
  42 4   H  1S          0.00000  -0.65713   0.75428   0.75428  -0.75428
  43        2S         -0.00000  -5.08916   6.45466   6.45466  -6.45466
  44        3S         -0.00000  -0.59522   0.24944   0.24944  -0.24944
  45        4PX         0.40942  -0.07287  -0.40517  -0.06387   0.06387
  46        4PY         0.40942   0.07287   0.06387   0.06387  -0.40517
  47        4PZ        -0.00000  -0.07287  -0.06387  -0.40517   0.06387
  48        5PX        -0.37140  -0.97236   1.36388   1.29376  -1.29376
  49        5PY        -0.37140   0.97236  -1.29376  -1.29376   1.36388
  50        5PZ        -0.00000  -0.97236   1.29376   1.36388  -1.29376
  51 5   H  1S          0.00000  -0.65713  -0.75428   0.75428   0.75428
  52        2S         -0.00000  -5.08916  -6.45466   6.45466   6.45466
  53        3S         -0.00000  -0.59522  -0.24944   0.24944   0.24944
  54        4PX        -0.40942   0.07287  -0.40517   0.06387   0.06387
  55        4PY        -0.40942  -0.07287   0.06387  -0.06387  -0.40517
  56        4PZ        -0.00000  -0.07287   0.06387  -0.40517  -0.06387
  57        5PX         0.37140   0.97236   1.36388  -1.29376  -1.29376
  58        5PY         0.37140  -0.97236  -1.29376   1.29376   1.36388
  59        5PZ        -0.00000  -0.97236  -1.29376   1.36388   1.29376
                          51        52        53        54        55
                        (T2)--V   (T2)--V   (T2)--V   (E)--V    (E)--V
     Eigenvalues --     2.00059   2.00059   2.00059   2.33967   2.33967
   1 1   C  1S          0.00000   0.00000   0.00000   0.00000  -0.00000
   2        2S          0.00000   0.00000   0.00000   0.00000  -0.00000
   3        3S          0.00000   0.00000   0.00000  -0.00000   0.00000
   4        4S          0.00000   0.00000   0.00000  -0.00000   0.00000
   5        5PX        -0.43167   0.00000   0.00000   0.00000   0.00000
   6        5PY         0.00000   0.00000  -0.43167   0.00000   0.00000
   7        5PZ         0.00000  -0.43167   0.00000   0.00000   0.00000
   8        6PX        -1.35483   0.00000   0.00000   0.00000   0.00000
   9        6PY         0.00000   0.00000  -1.35483   0.00000   0.00000
  10        6PZ         0.00000  -1.35483   0.00000   0.00000   0.00000
  11        7PX         0.43635   0.00000   0.00000   0.00000   0.00000
  12        7PY         0.00000   0.00000   0.43635   0.00000   0.00000
  13        7PZ         0.00000   0.43635   0.00000   0.00000   0.00000
  14        8D 0        0.00000   0.00000   0.00000   0.99096   0.70789
  15        8D+1        0.00000   0.00000   0.66416   0.00000   0.00000
  16        8D-1        0.66416   0.00000   0.00000   0.00000   0.00000
  17        8D+2        0.00000   0.00000   0.00000  -0.70789   0.99096
  18        8D-2        0.00000   0.66416   0.00000   0.00000   0.00000
  19        9D 0        0.00000   0.00000   0.00000   0.13821   0.09873
  20        9D+1        0.00000   0.00000  -0.72852   0.00000   0.00000
  21        9D-1       -0.72852   0.00000   0.00000   0.00000   0.00000
  22        9D+2        0.00000   0.00000   0.00000  -0.09873   0.13821
  23        9D-2        0.00000  -0.72852   0.00000   0.00000   0.00000
  24 2   H  1S          0.06656   0.06656   0.06656   0.00000  -0.00000
  25        2S          1.70793   1.70793   1.70793   0.00000  -0.00000
  26        3S         -0.48127  -0.48127  -0.48127   0.00000  -0.00000
  27        4PX         0.38661  -0.35312  -0.35312   0.53578  -0.24372
  28        4PY        -0.35312  -0.35312   0.38661  -0.05682   0.58586
  29        4PZ        -0.35312   0.38661  -0.35312  -0.47895  -0.34214
  30        5PX        -0.59608  -0.07883  -0.07883  -0.04985   0.02268
  31        5PY        -0.07883  -0.07883  -0.59608   0.00529  -0.05451
  32        5PZ        -0.07883  -0.59608  -0.07883   0.04456   0.03183
  33 3   H  1S         -0.06656   0.06656  -0.06656   0.00000  -0.00000
  34        2S         -1.70793   1.70793  -1.70793   0.00000  -0.00000
  35        3S          0.48127  -0.48127   0.48127   0.00000  -0.00000
  36        4PX         0.38661   0.35312  -0.35312  -0.53578   0.24372
  37        4PY        -0.35312   0.35312   0.38661   0.05682  -0.58586
  38        4PZ         0.35312   0.38661   0.35312  -0.47895  -0.34214
  39        5PX        -0.59608   0.07883  -0.07883   0.04985  -0.02268
  40        5PY        -0.07883   0.07883  -0.59608  -0.00529   0.05451
  41        5PZ         0.07883  -0.59608   0.07883   0.04456   0.03183
  42 4   H  1S         -0.06656  -0.06656   0.06656   0.00000  -0.00000
  43        2S         -1.70793  -1.70793   1.70793   0.00000  -0.00000
  44        3S          0.48127   0.48127  -0.48127   0.00000  -0.00000
  45        4PX         0.38661  -0.35312   0.35312  -0.53578   0.24372
  46        4PY         0.35312   0.35312   0.38661  -0.05682   0.58586
  47        4PZ        -0.35312   0.38661   0.35312   0.47895   0.34214
  48        5PX        -0.59608  -0.07883   0.07883   0.04985  -0.02268
  49        5PY         0.07883   0.07883  -0.59608   0.00529  -0.05451
  50        5PZ        -0.07883  -0.59608   0.07883  -0.04456  -0.03183
  51 5   H  1S          0.06656  -0.06656  -0.06656   0.00000  -0.00000
  52        2S          1.70793  -1.70793  -1.70793   0.00000  -0.00000
  53        3S         -0.48127   0.48127   0.48127   0.00000  -0.00000
  54        4PX         0.38661   0.35312   0.35312   0.53578  -0.24372
  55        4PY         0.35312  -0.35312   0.38661   0.05682  -0.58586
  56        4PZ         0.35312   0.38661  -0.35312   0.47895   0.34214
  57        5PX        -0.59608   0.07883   0.07883  -0.04985   0.02268
  58        5PY         0.07883  -0.07883  -0.59608  -0.00529   0.05451
  59        5PZ         0.07883  -0.59608  -0.07883  -0.04456  -0.03183
                          56        57        58        59
                        (A1)--V   (T2)--V   (T2)--V   (T2)--V
     Eigenvalues --     2.50128   2.57967   2.57967   2.57967
   1 1   C  1S         -0.06143   0.00000   0.00000   0.00000
   2        2S          1.36744   0.00000   0.00000   0.00000
   3        3S          2.69634   0.00000   0.00000   0.00000
   4        4S          1.81485   0.00000   0.00000   0.00000
   5        5PX         0.00000   0.00000   1.18521   0.00000
   6        5PY         0.00000   1.18521   0.00000   0.00000
   7        5PZ         0.00000   0.00000   0.00000   1.18521
   8        6PX         0.00000   0.00000   2.70018   0.00000
   9        6PY         0.00000   2.70018   0.00000   0.00000
  10        6PZ         0.00000   0.00000   0.00000   2.70018
  11        7PX         0.00000   0.00000   0.39925   0.00000
  12        7PY         0.00000   0.39925   0.00000   0.00000
  13        7PZ         0.00000   0.00000   0.00000   0.39925
  14        8D 0        0.00000   0.00000   0.00000   0.00000
  15        8D+1        0.00000   1.69033   0.00000   0.00000
  16        8D-1        0.00000   0.00000   1.69033   0.00000
  17        8D+2        0.00000   0.00000   0.00000   0.00000
  18        8D-2        0.00000   0.00000   0.00000   1.69033
  19        9D 0       -0.00000   0.00000   0.00000   0.00000
  20        9D+1        0.00000  -0.33906   0.00000   0.00000
  21        9D-1        0.00000   0.00000  -0.33906   0.00000
  22        9D+2       -0.00000   0.00000   0.00000   0.00000
  23        9D-2        0.00000   0.00000   0.00000  -0.33906
  24 2   H  1S         -0.56743  -1.06977  -1.06977  -1.06977
  25        2S         -1.01374  -0.82929  -0.82929  -0.82929
  26        3S         -0.14525  -0.12040  -0.12040  -0.12040
  27        4PX         0.49756   0.44036   0.56307   0.44036
  28        4PY         0.49756   0.56307   0.44036   0.44036
  29        4PZ         0.49756   0.44036   0.44036   0.56307
  30        5PX        -0.01011   0.24692  -0.37372   0.24692
  31        5PY        -0.01011  -0.37372   0.24692   0.24692
  32        5PZ        -0.01011   0.24692   0.24692  -0.37372
  33 3   H  1S         -0.56743   1.06977   1.06977  -1.06977
  34        2S         -1.01374   0.82929   0.82929  -0.82929
  35        3S         -0.14525   0.12040   0.12040  -0.12040
  36        4PX        -0.49756   0.44036   0.56307  -0.44036
  37        4PY        -0.49756   0.56307   0.44036  -0.44036
  38        4PZ         0.49756  -0.44036  -0.44036   0.56307
  39        5PX         0.01011   0.24692  -0.37372  -0.24692
  40        5PY         0.01011  -0.37372   0.24692  -0.24692
  41        5PZ        -0.01011  -0.24692  -0.24692  -0.37372
  42 4   H  1S         -0.56743  -1.06977   1.06977   1.06977
  43        2S         -1.01374  -0.82929   0.82929   0.82929
  44        3S         -0.14525  -0.12040   0.12040   0.12040
  45        4PX        -0.49756  -0.44036   0.56307   0.44036
  46        4PY         0.49756   0.56307  -0.44036  -0.44036
  47        4PZ        -0.49756  -0.44036   0.44036   0.56307
  48        5PX         0.01011  -0.24692  -0.37372   0.24692
  49        5PY        -0.01011  -0.37372  -0.24692  -0.24692
  50        5PZ         0.01011  -0.24692   0.24692  -0.37372
  51 5   H  1S         -0.56743   1.06977  -1.06977   1.06977
  52        2S         -1.01374   0.82929  -0.82929   0.82929
  53        3S         -0.14525   0.12040  -0.12040   0.12040
  54        4PX         0.49756  -0.44036   0.56307  -0.44036
  55        4PY        -0.49756   0.56307  -0.44036   0.44036
  56        4PZ        -0.49756   0.44036  -0.44036   0.56307
  57        5PX        -0.01011  -0.24692  -0.37372  -0.24692
  58        5PY         0.01011  -0.37372  -0.24692   0.24692
  59        5PZ         0.01011   0.24692  -0.24692  -0.37372
     Density Matrix:
                           1         2         3         4         5
   1 1   C  1S          2.05974
   2        2S         -0.07375   0.29925
   3        3S         -0.16403   0.07390   0.02867
   4        4S         -0.04707   0.01925   0.00778   0.00212
   5        5PX         0.00000   0.00000   0.00000   0.00000   0.40214
   6        5PY         0.00000   0.00000   0.00000   0.00000   0.00000
   7        5PZ         0.00000   0.00000   0.00000   0.00000   0.00000
   8        6PX         0.00000   0.00000   0.00000   0.00000  -0.02288
   9        6PY         0.00000   0.00000   0.00000   0.00000  -0.00000
  10        6PZ         0.00000   0.00000   0.00000   0.00000  -0.00000
  11        7PX         0.00000   0.00000   0.00000   0.00000  -0.02991
  12        7PY         0.00000   0.00000   0.00000   0.00000  -0.00000
  13        7PZ         0.00000   0.00000   0.00000   0.00000  -0.00000
  14        8D 0       -0.00000  -0.00000  -0.00000  -0.00000   0.00000
  15        8D+1        0.00000   0.00000   0.00000   0.00000  -0.00000
  16        8D-1       -0.00000  -0.00000  -0.00000  -0.00000   0.01801
  17        8D+2        0.00000   0.00000   0.00000  -0.00000  -0.00000
  18        8D-2        0.00000  -0.00000  -0.00000  -0.00000   0.00000
  19        9D 0       -0.00000   0.00000   0.00000   0.00000  -0.00000
  20        9D+1        0.00000  -0.00000  -0.00000  -0.00000   0.00000
  21        9D-1        0.00000   0.00000   0.00000   0.00000  -0.05554
  22        9D+2       -0.00000  -0.00000  -0.00000  -0.00000   0.00000
  23        9D-2        0.00000  -0.00000  -0.00000  -0.00000  -0.00000
  24 2   H  1S         -0.07226   0.14452   0.03831   0.01006   0.21063
  25        2S          0.01388   0.03688   0.00747   0.00190   0.25986
  26        3S          0.00418  -0.00106  -0.00054  -0.00015   0.02980
  27        4PX         0.00738  -0.01085  -0.00302  -0.00080   0.00523
  28        4PY         0.00738  -0.01085  -0.00302  -0.00080  -0.00867
  29        4PZ         0.00738  -0.01085  -0.00302  -0.00080  -0.00867
  30        5PX        -0.00184  -0.00857  -0.00183  -0.00047  -0.02926
  31        5PY        -0.00184  -0.00857  -0.00183  -0.00047  -0.03097
  32        5PZ        -0.00184  -0.00857  -0.00183  -0.00047  -0.03097
  33 3   H  1S         -0.07226   0.14452   0.03831   0.01006  -0.21063
  34        2S          0.01388   0.03688   0.00747   0.00190  -0.25986
  35        3S          0.00418  -0.00106  -0.00054  -0.00015  -0.02980
  36        4PX        -0.00738   0.01085   0.00302   0.00080   0.00523
  37        4PY        -0.00738   0.01085   0.00302   0.00080  -0.00867
  38        4PZ         0.00738  -0.01085  -0.00302  -0.00080   0.00867
  39        5PX         0.00184   0.00857   0.00183   0.00047  -0.02926
  40        5PY         0.00184   0.00857   0.00183   0.00047  -0.03097
  41        5PZ        -0.00184  -0.00857  -0.00183  -0.00047   0.03097
  42 4   H  1S         -0.07226   0.14452   0.03831   0.01006  -0.21063
[...]

 -------------------
 - Thermochemistry -
 -------------------
 Temperature   298.150 Kelvin.  Pressure   1.00000 Atm.
 Atom     1 has atomic number  6 and mass  12.00000
 Atom     2 has atomic number  1 and mass   1.00783
 Atom     3 has atomic number  1 and mass   1.00783
 Atom     4 has atomic number  1 and mass   1.00783
 Atom     5 has atomic number  1 and mass   1.00783
 Molecular mass:    16.03130 amu.
 Principal axes and moments of inertia in atomic units:
                           1         2         3
     Eigenvalues --    11.55024  11.55024  11.55024
           X            0.26177   0.92077  -0.28924
           Y            0.16419   0.25284   0.95348
           Z            0.95106  -0.29708  -0.08499
 This molecule is a spherical top.
 Rotational symmetry number 12.
 Rotational temperatures (Kelvin)      7.49888     7.49888     7.49888
 Rotational constants (GHZ):         156.25139   156.25139   156.25139
 Zero-point vibrational energy     116117.3 (Joules/Mol)
                                   27.75270 (Kcal/Mol)
 Vibrational temperatures:   1875.70  1875.70  1875.70  2190.51  2190.51
          (Kelvin)           4354.88  4522.78  4522.78  4522.79
 
 Zero-point correction=                           0.044227 (Hartree/Particle)
 Thermal correction to Energy=                    0.047101
 Thermal correction to Enthalpy=                  0.048046
 Thermal correction to Gibbs Free Energy=         0.026892
 Sum of electronic and zero-point Energies=            -40.476400
 Sum of electronic and thermal Energies=               -40.473526
 Sum of electronic and thermal Enthalpies=             -40.472581
 Sum of electronic and thermal Free Energies=          -40.493735
 
                     E (Thermal)             CV                S
                      KCal/Mol        Cal/Mol-Kelvin    Cal/Mol-Kelvin
 Total                   29.557              6.539             44.521
 Electronic               0.000              0.000              0.000
 Translational            0.889              2.981             34.261
 Rotational               0.889              2.981             10.158
 Vibrational             27.779              0.578              0.102
                       Q            Log10(Q)             Ln(Q)
 Total Bot       0.427160D-12        -12.369409        -28.481617
 Total V=0       0.940669D+08          7.973437         18.359516
 Vib (Bot)       0.457226D-20        -20.339869        -46.834280
 Vib (V=0)       0.100688D+01          0.002977          0.006854
 Electronic      0.100000D+01          0.000000          0.000000
 Translational   0.252295D+07          6.401908         14.740939
 Rotational      0.370298D+02          1.568552          3.611724
 
                                   methane with imposed symmetry and hf/aug-cc-pV
 DZ basis function
                                                             IR Spectrum
 
      3   3                                                            1        1                                                    
      1   0                                                            5        3                                                    
      4   2                                                            2        0                                                    
      3   7                                                            2        4                                                    
 
      X                                                                         X                                                    
      X                                                                         X                                                    
      X                                                                         X                                                    
      X                                                                         X                                                    
      X                                                                         X                                                    
      X                                                                         X                                                    
      X                                                                         X                                                    
      X                                                                         X                                                    
      X                                                                         X                                                    
      X                                                                         X                                                    
      X                                                                                                                              
      X                                                                                                                              
      X                                                                                                                              
      X                                                                                                                              
      X                                                                                                                              
      X                                                                                                                              
      X                                                                                                                              
      X                                                                                                                              
      X                                                                                                                              
      X                                                                                                                              
 
 ***** Axes restored to original set *****
 -------------------------------------------------------------------
 Center     Atomic                   Forces (Hartrees/Bohr)
 Number     Number              X              Y              Z
 -------------------------------------------------------------------
      1        6           0.000000000    0.000000000   -0.000000000
      2        1          -0.000000000    0.000000000   -0.000107299
      3        1          -0.000101162    0.000000000    0.000035766
      4        1           0.000050581    0.000087609    0.000035766
      5        1           0.000050581   -0.000087609    0.000035766
 -------------------------------------------------------------------
 Cartesian Forces:  Max     0.000107299 RMS     0.000055409
 Force constants in Cartesian coordinates: 
                1             2             3             4             5 
      1  0.538138D+00
      2  0.000000D+00  0.538138D+00
      3  0.000000D+00  0.000000D+00  0.538138D+00
      4 -0.424543D-01  0.000000D+00  0.000000D+00  0.425091D-01
      5  0.000000D+00 -0.424543D-01  0.000000D+00  0.000000D+00  0.425091D-01
      6  0.000000D+00  0.000000D+00 -0.318695D+00  0.000000D+00  0.000000D+00
      7 -0.288001D+00  0.000000D+00  0.868140D-01  0.174770D-02  0.000000D+00
      8  0.000000D+00 -0.424543D-01  0.000000D+00  0.000000D+00 -0.178421D-02
      9  0.868140D-01  0.000000D+00 -0.731477D-01  0.299438D-01  0.000000D+00
     10 -0.103841D+00 -0.106325D+00 -0.434070D-01 -0.901232D-03  0.152936D-02
     11 -0.106325D+00 -0.226615D+00 -0.751831D-01  0.152936D-02  0.864721D-03
     12 -0.434070D-01 -0.751831D-01 -0.731477D-01 -0.149719D-01 -0.259321D-01
     13 -0.103841D+00  0.106325D+00 -0.434070D-01 -0.901232D-03 -0.152936D-02
     14  0.106325D+00 -0.226615D+00  0.751831D-01 -0.152936D-02  0.864720D-03
     15 -0.434070D-01  0.751831D-01 -0.731477D-01 -0.149719D-01  0.259321D-01
                6             7             8             9            10 
      6  0.344053D+00
      7 -0.109225D-02  0.310548D+00
      8  0.000000D+00  0.000000D+00  0.425091D-01
      9 -0.845287D-02 -0.947662D-01  0.000000D+00  0.760140D-01
     10  0.546125D-03 -0.121474D-01 -0.239392D-01 -0.109958D-01  0.109519D+00
     11  0.945918D-03  0.140161D-02  0.864720D-03  0.112659D-02  0.116064D+00
     12 -0.845287D-02  0.452224D-02  0.100859D-01  0.279328D-02  0.473831D-01
     13  0.546126D-03 -0.121474D-01  0.239392D-01 -0.109958D-01  0.737077D-02
     14 -0.945918D-03 -0.140161D-02  0.864721D-03 -0.112659D-02  0.126704D-01
     15 -0.845287D-02  0.452224D-02 -0.100859D-01  0.279328D-02  0.647355D-02
               11            12            13            14            15 
     11  0.243539D+00
     12  0.820699D-01  0.760140D-01
     13 -0.126704D-01  0.647355D-02  0.109519D+00
     14 -0.186534D-01  0.895934D-02 -0.116064D+00  0.243539D+00
     15 -0.895934D-02  0.279328D-02  0.473831D-01 -0.820699D-01  0.760140D-01
 Force constants in internal coordinates: 
                1             2             3             4             5 
      1  0.344053D+00
      2  0.178784D-02  0.344053D+00
      3  0.178784D-02  0.178784D-02  0.344053D+00
      4  0.178784D-02  0.178784D-02  0.178784D-02  0.344053D+00
      5  0.190481D-02  0.190481D-02 -0.119604D-02 -0.261357D-02  0.187396D-01
      6  0.298529D-02 -0.770398D-03  0.332234D-02 -0.553723D-02 -0.835242D-02
      7  0.583384D-02 -0.468209D-02 -0.518285D-02  0.403111D-02 -0.124335D-01
      8 -0.770397D-03  0.298529D-02  0.332234D-02 -0.553723D-02 -0.835242D-02
      9 -0.468209D-02  0.583384D-02 -0.518285D-02  0.403111D-02 -0.124335D-01
     10 -0.527145D-02 -0.527145D-02  0.491706D-02  0.562583D-02  0.228322D-01
     11 -0.368924D-02 -0.368924D-02 -0.260417D-02  0.998266D-02 -0.127217D-01
     12  0.303820D-02  0.303820D-02 -0.781252D-02  0.173611D-02  0.772339D-02
     13 -0.400061D-02  0.703881D-02 -0.390626D-02  0.868057D-03  0.386169D-02
     14 -0.703881D-02  0.400061D-02  0.390626D-02 -0.868057D-03 -0.386169D-02
                6             7             8             9            10 
      6  0.352922D-01
      7 -0.214690D-01  0.689499D-01
      8 -0.203380D-02  0.237056D-01  0.352922D-01
      9  0.237056D-01 -0.334950D-01 -0.214690D-01  0.689499D-01
     10 -0.271425D-01 -0.252579D-01 -0.271425D-01 -0.252579D-01  0.819686D-01
     11 -0.101370D-01  0.138583D-01 -0.101370D-01  0.138583D-01  0.527904D-02
     12 -0.885999D-02  0.648369D-02 -0.885999D-02  0.648369D-02 -0.297080D-02
     13 -0.134556D-01 -0.461667D-03  0.459559D-02  0.694536D-02 -0.148540D-02
     14 -0.459559D-02 -0.694536D-02  0.134556D-01  0.461667D-03  0.148540D-02
               11            12            13            14 
     11  0.279960D-01
     12  0.139205D-02  0.174000D-01
     13  0.696023D-03  0.870002D-02  0.176720D-01
     14 -0.696023D-03 -0.870002D-02  0.897195D-02  0.176720D-01
 Leave Link  716 at Sat Aug 17 15:03:04 2024, MaxMem=   13107200 cpu:       0.0
 (Enter /programs/64bit/g09/g09-gfortran/bin/l103.exe)

 GradGradGradGradGradGradGradGradGradGradGradGradGradGradGradGradGradGrad
 Berny optimization.
 Internal  Forces:  Max     0.000107299 RMS     0.000057354
 Search for a local minimum.
 Step number   1 out of a maximum of    2
 All quantities printed in internal units (Hartrees-Bohrs-Radians)
 Second derivative matrix not updated -- analytic derivatives used.
 The second derivative matrix:
                          R1        R2        R3        R4        A1
           R1           0.34405
           R2           0.00179   0.34405
           R3           0.00179   0.00179   0.34405
           R4           0.00179   0.00179   0.00179   0.34405
           A1           0.00190   0.00190  -0.00120  -0.00261   0.01874
           A2           0.00299  -0.00077   0.00332  -0.00554  -0.00835
           A3           0.00583  -0.00468  -0.00518   0.00403  -0.01243
           A4          -0.00077   0.00299   0.00332  -0.00554  -0.00835
           A5          -0.00468   0.00583  -0.00518   0.00403  -0.01243
           A6          -0.00527  -0.00527   0.00492   0.00563   0.02283
           D1          -0.00369  -0.00369  -0.00260   0.00998  -0.01272
           D2           0.00304   0.00304  -0.00781   0.00174   0.00772
           D3          -0.00400   0.00704  -0.00391   0.00087   0.00386
           D4          -0.00704   0.00400   0.00391  -0.00087  -0.00386
                          A2        A3        A4        A5        A6
           A2           0.03529
           A3          -0.02147   0.06895
           A4          -0.00203   0.02371   0.03529
           A5           0.02371  -0.03350  -0.02147   0.06895
           A6          -0.02714  -0.02526  -0.02714  -0.02526   0.08197
           D1          -0.01014   0.01386  -0.01014   0.01386   0.00528
           D2          -0.00886   0.00648  -0.00886   0.00648  -0.00297
           D3          -0.01346  -0.00046   0.00460   0.00695  -0.00149
           D4          -0.00460  -0.00695   0.01346   0.00046   0.00149
                          D1        D2        D3        D4
           D1           0.02800
           D2           0.00139   0.01740
           D3           0.00070   0.00870   0.01767
           D4          -0.00070  -0.00870   0.00897   0.01767
     Eigenvalues ---    0.03568   0.04018   0.06101   0.12481   0.12535
     Eigenvalues ---    0.34314   0.34315   0.34342   0.349421000.00000
     Eigenvalues --- 1000.000001000.000001000.000001000.00000
 Angle between quadratic step and forces=   0.00 degrees.
 Linear search not attempted -- first point.
 Iteration  1 RMS(Cart)=  0.00016414 RMS(Int)=  0.00000000
 Iteration  2 RMS(Cart)=  0.00000000 RMS(Int)=  0.00000000
 ClnCor:  largest displacement from symmetrization is 7.82D-12 for atom     3.
 Variable       Old X    -DE/DX   Delta X   Delta X   Delta X     New X
                                 (Linear)    (Quad)   (Total)
    R1        2.07309  -0.00011   0.00000  -0.00031  -0.00031   2.07278
    R2        2.07309  -0.00011   0.00000  -0.00031  -0.00031   2.07278
    R3        2.07309  -0.00011   0.00000  -0.00031  -0.00031   2.07278
    R4        2.07309  -0.00011   0.00000  -0.00031  -0.00031   2.07278
    A1        1.91063   0.00000   0.00000  -0.00000   0.00000   1.91063
    A2        1.91063   0.00000   0.00000  -0.00000   0.00000   1.91063
    A3        1.91063  -0.00000   0.00000   0.00000  -0.00000   1.91063
    A4        1.91063   0.00000   0.00000   0.00000   0.00000   1.91063
    A5        1.91063  -0.00000   0.00000  -0.00000   0.00000   1.91063
    A6        1.91063  -0.00000   0.00000  -0.00000   0.00000   1.91063
    D1       -2.09440  -0.00000   0.00000   0.00000   0.00000  -2.09440
    D2        2.09440   0.00000   0.00000  -0.00000   0.00000   2.09440
    D3       -2.09440   0.00000   0.00000   0.00000   0.00000  -2.09440
    D4        2.09440   0.00000   0.00000   0.00000   0.00000   2.09440
         Item               Value     Threshold  Converged?
 Maximum Force            0.000107     0.000450     YES
 RMS     Force            0.000057     0.000300     YES
 Maximum Displacement     0.000307     0.001800     YES
 RMS     Displacement     0.000164     0.001200     YES
 Predicted change in Energy=-6.589862D-08
 Optimization completed.
    -- Stationary point found.
                           ----------------------------
                           !   Optimized Parameters   !
                           ! (Angstroms and Degrees)  !
 --------------------------                            --------------------------
 ! Name  Definition              Value          Derivative Info.                !
 --------------------------------------------------------------------------------
 ! R1    R(1,2)                  1.097          -DE/DX =   -0.0001              !
 ! R2    R(1,3)                  1.097          -DE/DX =   -0.0001              !
 ! R3    R(1,4)                  1.097          -DE/DX =   -0.0001              !
 ! R4    R(1,5)                  1.097          -DE/DX =   -0.0001              !
 ! A1    A(2,1,3)              109.4712         -DE/DX =    0.0                 !
 ! A2    A(2,1,4)              109.4712         -DE/DX =    0.0                 !
 ! A3    A(2,1,5)              109.4712         -DE/DX =    0.0                 !
 ! A4    A(3,1,4)              109.4712         -DE/DX =    0.0                 !
 ! A5    A(3,1,5)              109.4712         -DE/DX =    0.0                 !
 ! A6    A(4,1,5)              109.4712         -DE/DX =    0.0                 !
 ! D1    D(2,1,4,3)           -120.0            -DE/DX =    0.0                 !
 ! D2    D(2,1,5,3)            120.0            -DE/DX =    0.0                 !
 ! D3    D(2,1,5,4)           -120.0            -DE/DX =    0.0                 !
 ! D4    D(3,1,5,4)            120.0            -DE/DX =    0.0                 !
 --------------------------------------------------------------------------------
 GradGradGradGradGradGradGradGradGradGradGradGradGradGradGradGradGradGrad

 Leave Link  103 at Sat Aug 17 15:03:04 2024, MaxMem=   13107200 cpu:       0.0
 (Enter /programs/64bit/g09/g09-gfortran/bin/l9999.exe)
 1\1\GINC-MOLMOD\Freq\RB3LYP\Aug-CC-pVDZ\C1H4\OSPITE\17-Aug-2024\0\\#P 
 Geom=AllCheck Guess=TCheck SCRF=Check GenChk RB3LYP/Aug-CC-pVDZ Freq\\
 methane with imposed symmetry and hf/aug-cc-pVDZ basis function\\0,1\C
 ,0.,0.,0.\H,0.,0.,1.0970330578\H,1.0342926858,0.,-0.3656776859\H,-0.51
 71463429,-0.8957237408,-0.3656776859\H,-0.5171463429,0.8957237408,-0.3
 656776859\\Version=EM64L-G09RevA.02\State=1-A1\HF=-40.5206269\RMSD=2.0
 40e-10\RMSF=5.541e-05\ZeroPoint=0.0442267\Thermal=0.0471013\Dipole=0.,
 0.,0.\DipoleDeriv=0.0141447,0.,0.,0.,0.0141447,0.,0.,0.,0.0141447,0.06
 15134,0.,0.,0.,0.0615134,0.,0.,0.,-0.1336353,-0.1119521,0.,0.0613293,0
 .,0.0615134,0.,0.0613293,0.,0.0398302,0.018147,-0.0751128,-0.0306647,-
 0.0751128,-0.0685857,-0.0531128,-0.0306647,-0.0531128,0.0398302,0.0181
 47,0.0751128,-0.0306647,0.0751128,-0.0685857,0.0531127,-0.0306647,0.05
 31128,0.0398302\Polar=17.1931914,0.,17.1931914,0.,0.,17.1931914\PG=TD 
 [O(C1),4C3(H1)]\NImag=0\\0.53813781,0.,0.53813781,0.,0.,0.53813781,-0.
 04245435,0.,0.,0.04250911,0.,-0.04245435,0.,0.,0.04250911,0.,0.,-0.318
 69465,0.,0.,0.34405326,-0.28800128,0.,0.08681395,0.00174770,0.,-0.0010
 9225,0.31054835,0.,-0.04245435,0.,0.,-0.00178421,0.,0.,0.04250911,0.08
 681395,0.,-0.07314771,0.02994382,0.,-0.00845287,-0.09476618,0.,0.07601
 401,-0.10384108,-0.10632494,-0.04340697,-0.00090123,0.00152936,0.00054
 613,-0.01214739,-0.02393924,-0.01099579,0.10951892,-0.10632494,-0.2266
 1455,-0.07518309,0.00152936,0.00086472,0.00094592,0.00140161,0.0008647
 2,0.00112659,0.11606440,0.24353854,-0.04340698,-0.07518309,-0.07314771
 ,-0.01497191,-0.02593211,-0.00845287,0.00452224,0.01008593,0.00279328,
 0.04738309,0.08206992,0.07601401,-0.10384108,0.10632494,-0.04340698,-0
 .00090123,-0.00152936,0.00054613,-0.01214739,0.02393924,-0.01099579,0.
 00737077,-0.01267042,0.00647355,0.10951892,0.10632494,-0.22661455,0.07
 518309,-0.00152936,0.00086472,-0.00094592,-0.00140161,0.00086472,-0.00
 112659,0.01267042,-0.01865344,0.00895934,-0.11606440,0.24353854,-0.043
 40698,0.07518309,-0.07314771,-0.01497191,0.02593211,-0.00845287,0.0045
 2224,-0.01008593,0.00279328,0.00647355,-0.00895934,0.00279328,0.047383
 09,-0.08206992,0.07601401\\0.,0.,0.,0.,0.,0.00010730,0.00010116,0.,-0.
 00003577,-0.00005058,-0.00008761,-0.00003577,-0.00005058,0.00008761,-0
 .00003577\\\@


 The number of Unix installations has grown to 10,
  with more expected.
                  -- The Unix Programmer's Manual,
                     2nd Edition, June, 1972.
 Job cpu time:  0 days  0 hours  0 minutes 38.9 seconds.
 File lengths (MBytes):  RWF=      5 Int=      0 D2E=      0 Chk=      1 Scr=      1
 Normal termination of Gaussian 09 at Sat Aug 17 15:03:04 2024.
