 Entering Gaussian System, Link 0=/programs/64bit/g09/g09-gfortran/bin/g09
 Input=ch4_Pople631.com
 Output=ch4_Pople631.log
 Initial command:
 /programs/64bit/g09/g09-gfortran/bin/l1.exe /home/ospite/Desktop/MMfP/Project6/CH4/g09/DFT/Gau-4037.inp -scrdir=/home/ospite/Desktop/MMfP/Project6/CH4/g09/DFT/
 Entering Link 1 = /programs/64bit/g09/g09-gfortran/bin/l1.exe PID=      4038.
  
 Copyright (c) 1988,1990,1992,1993,1995,1998,2003,2009, Gaussian, Inc.
                  All Rights Reserved.
  
 This is part of the Gaussian(R) 09 program.  It is based on
 the Gaussian(R) 03 system (copyright 2003, Gaussian, Inc.),
 the Gaussian(R) 98 system (copyright 1998, Gaussian, Inc.),
 the Gaussian(R) 94 system (copyright 1995, Gaussian, Inc.),
 the Gaussian 92(TM) system (copyright 1992, Gaussian, Inc.),
 the Gaussian 90(TM) system (copyright 1990, Gaussian, Inc.),
 the Gaussian 88(TM) system (copyright 1988, Gaussian, Inc.),
 the Gaussian 86(TM) system (copyright 1986, Carnegie Mellon
 University), and the Gaussian 82(TM) system (copyright 1983,
 Carnegie Mellon University). Gaussian is a federally registered
 trademark of Gaussian, Inc.
  
 This software contains proprietary and confidential information,
 including trade secrets, belonging to Gaussian, Inc.
  
 This software is provided under written license and may be
 used, copied, transmitted, or stored only in accord with that
 written license.
  
 The following legend is applicable only to US Government
 contracts under FAR:
  
                    RESTRICTED RIGHTS LEGEND
  
 Use, reproduction and disclosure by the US Government is
 subject to restrictions as set forth in subparagraphs (a)
 and (c) of the Commercial Computer Software - Restricted
 Rights clause in FAR 52.227-19.
  
 Gaussian, Inc.
 340 Quinnipiac St., Bldg. 40, Wallingford CT 06492
  
  
 ---------------------------------------------------------------
 Warning -- This program may not be used in any manner that
 competes with the business of Gaussian, Inc. or will provide
 assistance to any competitor of Gaussian, Inc.  The licensee
 of this program is prohibited from giving any competitor of
 Gaussian, Inc. access to this program.  By using this program,
 the user acknowledges that Gaussian, Inc. is engaged in the
 business of creating and licensing software in the field of
 computational chemistry and represents and warrants to the
 licensee that it is not a competitor of Gaussian, Inc. and that
 it will not use this program in any manner prohibited above.
 ---------------------------------------------------------------
  

 Cite this work as:
 Gaussian 09, Revision A.02,
 M. J. Frisch, G. W. Trucks, H. B. Schlegel, G. E. Scuseria, 
 M. A. Robb, J. R. Cheeseman, G. Scalmani, V. Barone, B. Mennucci, 
 G. A. Petersson, H. Nakatsuji, M. Caricato, X. Li, H. P. Hratchian, 
 A. F. Izmaylov, J. Bloino, G. Zheng, J. L. Sonnenberg, M. Hada, 
 M. Ehara, K. Toyota, R. Fukuda, J. Hasegawa, M. Ishida, T. Nakajima, 
 Y. Honda, O. Kitao, H. Nakai, T. Vreven, J. A. Montgomery, Jr., 
 J. E. Peralta, F. Ogliaro, M. Bearpark, J. J. Heyd, E. Brothers, 
 K. N. Kudin, V. N. Staroverov, R. Kobayashi, J. Normand, 
 K. Raghavachari, A. Rendell, J. C. Burant, S. S. Iyengar, J. Tomasi, 
 M. Cossi, N. Rega, J. M. Millam, M. Klene, J. E. Knox, J. B. Cross, 
 V. Bakken, C. Adamo, J. Jaramillo, R. Gomperts, R. E. Stratmann, 
 O. Yazyev, A. J. Austin, R. Cammi, C. Pomelli, J. W. Ochterski, 
 R. L. Martin, K. Morokuma, V. G. Zakrzewski, G. A. Voth, 
 P. Salvador, J. J. Dannenberg, S. Dapprich, A. D. Daniels, 
 O. Farkas, J. B. Foresman, J. V. Ortiz, J. Cioslowski, 
 and D. J. Fox, Gaussian, Inc., Wallingford CT, 2009.
 
 ******************************************
 Gaussian 09:  EM64L-G09RevA.02 11-Jun-2009
                17-Aug-2024 
 ******************************************
 %mem=100MB
 ----------------------------------------------------------------
 #p b3lyp/6-31G opt freq symmetry=(follow,pg=Td) pop=full gfinput
 ----------------------------------------------------------------
 1/14=-1,18=20,19=15,26=3,38=1/1,3;
 2/9=110,12=2,17=6,18=5,19=2314885530818462804,40=1/2;
 3/5=1,6=6,11=2,16=1,24=10,25=1,30=1,71=1,74=-5/1,2,3;
 4//1;
 5/5=2,38=5/2;
 6/7=3,28=1/1;
 7//1,2,3,16;
 1/14=-1,18=20,19=15/3(2);
 2/9=110,15=5,19=2314885530818462804/2;
 99//99;
 2/9=110,15=5,19=2314885530818462804/2;
 3/5=1,6=6,11=2,16=1,25=1,30=1,71=1,74=-5/1,2,3;
 4/5=5,16=3/1;
 5/5=2,38=5/2;
 7//1,2,3,16;
 1/14=-1,18=20,19=15/3(-5);
 2/9=110,15=5,19=2314885530818462804/2;
 6/7=3,19=2,28=1/1;
 99/9=1/99;
 Leave Link    1 at Sat Aug 17 14:45:58 2024, MaxMem=   13107200 cpu:       0.1
 (Enter /programs/64bit/g09/g09-gfortran/bin/l101.exe)
 ------------------------------------------------------------
 methane with imposed symmetry Td and hf/6-31G basis function
 ------------------------------------------------------------
 Symbolic Z-matrix:
 Charge =  0 Multiplicity = 1
 C1
 H2                   1    d
 H3                   1    d        2    a
 H4                   1    d        2    a        3    t        0
 H5                   1    d        2    a        3    -t       0
       Variables:
  d                     1.09                     
  a                   109.471                    
  t                   120.                       
 
     3 tetrahedral angles replaced.
 NAtoms=      5 NQM=      5 NQMF=      0 NMic=      0 NMicF=      0 NTot=      5.
                    Isotopes and Nuclear Properties:
 (Nuclear quadrupole moments (NQMom) in fm**2, nuclear magnetic moments (NMagM)
  in nuclear magnetons)

  Atom         1           2           3           4           5
 IAtWgt=          12           1           1           1           1
 AtmWgt=  12.0000000   1.0078250   1.0078250   1.0078250   1.0078250
 NucSpn=           0           1           1           1           1
 AtZEff=   0.0000000   0.0000000   0.0000000   0.0000000   0.0000000
 NQMom=    0.0000000   0.0000000   0.0000000   0.0000000   0.0000000
 NMagM=    0.0000000   2.7928460   2.7928460   2.7928460   2.7928460
 Leave Link  101 at Sat Aug 17 14:45:58 2024, MaxMem=   13107200 cpu:       0.1
 (Enter /programs/64bit/g09/g09-gfortran/bin/l103.exe)

 GradGradGradGradGradGradGradGradGradGradGradGradGradGradGradGradGradGrad
 Berny optimization.
 Initialization pass.
                           ----------------------------
                           !    Initial Parameters    !
                           ! (Angstroms and Degrees)  !
 --------------------------                            --------------------------
 ! Name  Definition              Value          Derivative Info.                !
 --------------------------------------------------------------------------------
 ! R1    R(1,2)                  1.09           estimate D2E/DX2                !
 ! R2    R(1,3)                  1.09           estimate D2E/DX2                !
 ! R3    R(1,4)                  1.09           estimate D2E/DX2                !
 ! R4    R(1,5)                  1.09           estimate D2E/DX2                !
 ! A1    A(2,1,3)              109.4712         estimate D2E/DX2                !
 ! A2    A(2,1,4)              109.4712         estimate D2E/DX2                !
 ! A3    A(2,1,5)              109.4712         estimate D2E/DX2                !
 ! A4    A(3,1,4)              109.4712         estimate D2E/DX2                !
 ! A5    A(3,1,5)              109.4712         estimate D2E/DX2                !
 ! A6    A(4,1,5)              109.4712         estimate D2E/DX2                !
 ! D1    D(2,1,4,3)           -120.0            estimate D2E/DX2                !
 ! D2    D(2,1,5,3)            120.0            estimate D2E/DX2                !
 ! D3    D(2,1,5,4)           -120.0            estimate D2E/DX2                !
 ! D4    D(3,1,5,4)            120.0            estimate D2E/DX2                !
 --------------------------------------------------------------------------------
 Trust Radius=3.00D-01 FncErr=1.00D-07 GrdErr=1.00D-06
 Number of steps in this run=  24 maximum allowed number of steps= 100.
 GradGradGradGradGradGradGradGradGradGradGradGradGradGradGradGradGradGrad

 Leave Link  103 at Sat Aug 17 14:45:58 2024, MaxMem=   13107200 cpu:       0.0
 (Enter /programs/64bit/g09/g09-gfortran/bin/l202.exe)
                          Input orientation:                          
 ---------------------------------------------------------------------
 Center     Atomic      Atomic             Coordinates (Angstroms)
 Number     Number       Type             X           Y           Z
 ---------------------------------------------------------------------
      1          6           0        0.000000    0.000000    0.000000
      2          1           0        0.000000    0.000000    1.090000
      3          1           0        1.027662    0.000000   -0.363333
      4          1           0       -0.513831   -0.889981   -0.363333
      5          1           0       -0.513831    0.889981   -0.363333
 ---------------------------------------------------------------------
                    Distance matrix (angstroms):
                    1          2          3          4          5
     1  C    0.000000
     2  H    1.090000   0.000000
     3  H    1.090000   1.779963   0.000000
     4  H    1.090000   1.779963   1.779963   0.000000
     5  H    1.090000   1.779963   1.779963   1.779963   0.000000
 Symm:  InNGrp=TD   InAxis=0.
 Stoichiometry    CH4
 Framework group  TD[O(C),4C3(H)]
 Deg. of freedom     1
 Full point group                 TD      NOp  24
 Largest Abelian subgroup         D2      NOp   4
 Largest concise Abelian subgroup D2      NOp   4
                         Standard orientation:                         
 ---------------------------------------------------------------------
 Center     Atomic      Atomic             Coordinates (Angstroms)
 Number     Number       Type             X           Y           Z
 ---------------------------------------------------------------------
      1          6           0        0.000000    0.000000    0.000000
      2          1           0        0.629312    0.629312    0.629312
      3          1           0       -0.629312   -0.629312    0.629312
      4          1           0       -0.629312    0.629312   -0.629312
      5          1           0        0.629312   -0.629312   -0.629312
 ---------------------------------------------------------------------
 Rotational constants (GHZ):    158.2742720    158.2742720    158.2742720
 Leave Link  202 at Sat Aug 17 14:45:58 2024, MaxMem=   13107200 cpu:       0.0
 (Enter /programs/64bit/g09/g09-gfortran/bin/l301.exe)
 Standard basis: 6-31G (6D, 7F)
 Ernie: Thresh=  0.10000D-02 Tol=  0.10000D-05 Strict=F.
 AO basis set in the form of general basis input (Overlap normalization):
      1 0
 S   6 1.00       0.000000000000
      0.3047524880D+04  0.1834737132D-02
      0.4573695180D+03  0.1403732281D-01
      0.1039486850D+03  0.6884262226D-01
      0.2921015530D+02  0.2321844432D+00
      0.9286662960D+01  0.4679413484D+00
      0.3163926960D+01  0.3623119853D+00
 SP   3 1.00       0.000000000000
      0.7868272350D+01 -0.1193324198D+00  0.6899906659D-01
      0.1881288540D+01 -0.1608541517D+00  0.3164239610D+00
      0.5442492580D+00  0.1143456438D+01  0.7443082909D+00
 SP   1 1.00       0.000000000000
      0.1687144782D+00  0.1000000000D+01  0.1000000000D+01
 ****
      2 0
 S   3 1.00       0.000000000000
      0.1873113696D+02  0.3349460434D-01
      0.2825394365D+01  0.2347269535D+00
      0.6401216923D+00  0.8137573261D+00
 S   1 1.00       0.000000000000
      0.1612777588D+00  0.1000000000D+01
 ****
      3 0
 S   3 1.00       0.000000000000
      0.1873113696D+02  0.3349460434D-01
      0.2825394365D+01  0.2347269535D+00
      0.6401216923D+00  0.8137573261D+00
 S   1 1.00       0.000000000000
      0.1612777588D+00  0.1000000000D+01
 ****
      4 0
 S   3 1.00       0.000000000000
      0.1873113696D+02  0.3349460434D-01
      0.2825394365D+01  0.2347269535D+00
      0.6401216923D+00  0.8137573261D+00
 S   1 1.00       0.000000000000
      0.1612777588D+00  0.1000000000D+01
 ****
      5 0
 S   3 1.00       0.000000000000
      0.1873113696D+02  0.3349460434D-01
      0.2825394365D+01  0.2347269535D+00
      0.6401216923D+00  0.8137573261D+00
 S   1 1.00       0.000000000000
      0.1612777588D+00  0.1000000000D+01
 ****

 There are     5 symmetry adapted basis functions of A   symmetry.
 There are     4 symmetry adapted basis functions of B1  symmetry.
 There are     4 symmetry adapted basis functions of B2  symmetry.
 There are     4 symmetry adapted basis functions of B3  symmetry.
 Integral buffers will be    131072 words long.
 Raffenetti 2 integral format.
 Two-electron integral symmetry is turned on.
    17 basis functions,    38 primitive gaussians,    17 cartesian basis functions
     5 alpha electrons        5 beta electrons
       nuclear repulsion energy        13.4353891954 Hartrees.
 IExCor=  402 DFT=T Ex+Corr=B3LYP ExCW=0 ScaHFX=  0.200000
 ScaDFX=  0.800000  0.720000  1.000000  0.810000 ScalE2=  1.000000  1.000000
 IRadAn=      0 IRanWt=     -1 IRanGd=            0 ICorTp=0
 NAtoms=    5 NActive=    5 NUniq=    2 SFac= 3.00D+00 NAtFMM=   80 NAOKFM=F Big=F
 Leave Link  301 at Sat Aug 17 14:45:59 2024, MaxMem=   13107200 cpu:       0.1
 (Enter /programs/64bit/g09/g09-gfortran/bin/l302.exe)
 NPDir=0 NMtPBC=     1 NCelOv=     1 NCel=       1 NClECP=     1 NCelD=      1
         NCelK=      1 NCelE2=     1 NClLst=     1 CellRange=     0.0.
 One-electron integrals computed using PRISM.
 One-electron integral symmetry used in STVInt
 NBasis=    17 RedAO= T  NBF=     5     4     4     4
 NBsUse=    17 1.00D-06 NBFU=     5     4     4     4
 Precomputing XC quadrature grid using
 IXCGrd= 2 IRadAn=           0 IRanWt=          -1 IRanGd=           0 AccXCQ= 1.00D-10.
 NRdTot=     304 NPtTot=       38382 NUsed=       40588 NTot=       40620
 NSgBfM=    17    17    17    17    17 NAtAll=     5     5.
 Leave Link  302 at Sat Aug 17 14:45:59 2024, MaxMem=   13107200 cpu:       0.1
 (Enter /programs/64bit/g09/g09-gfortran/bin/l303.exe)
 DipDrv:  MaxL=1.
 Leave Link  303 at Sat Aug 17 14:45:59 2024, MaxMem=   13107200 cpu:       0.0
 (Enter /programs/64bit/g09/g09-gfortran/bin/l401.exe)
 Harris functional with IExCor=  402 diagonalized for initial guess.
 ExpMin= 1.61D-01 ExpMax= 3.05D+03 ExpMxC= 4.57D+02 IAcc=1 IRadAn=         1 AccDes= 0.00D+00
 HarFok:  IExCor=  402 AccDes= 0.00D+00 IRadAn=         1 IDoV= 1
 ScaDFX=  1.000000  1.000000  1.000000  1.000000
 FoFCou: FMM=F IPFlag=           0 FMFlag=      100000 FMFlg1=           0
         NFxFlg=           0 DoJE=T BraDBF=F KetDBF=T FulRan=T
         Omega=  0.000000  0.000000  1.000000  0.000000  0.000000 ICntrl=     500 IOpCl=  0
         NMat0=    1 NMatS0=    1 NMatT0=    0 NMatD0=    1 NMtDS0=    0 NMtDT0=    0
         I1Cent=           4 NGrid=           0.
 Petite list used in FoFCou.
 Harris En= -40.5566596295972    
 Initial guess orbital symmetries:
       Occupied  (A1) (A1) (T2) (T2) (T2)
       Virtual   (A1) (T2) (T2) (T2) (T2) (T2) (T2) (T2) (T2) (T2)
                 (A1) (A1)
 The electronic state of the initial guess is 1-A1.
 Leave Link  401 at Sat Aug 17 14:45:59 2024, MaxMem=   13107200 cpu:       0.2
 (Enter /programs/64bit/g09/g09-gfortran/bin/l502.exe)
 Closed shell SCF:
 Requested convergence on RMS density matrix=1.00D-08 within 128 cycles.
 Requested convergence on MAX density matrix=1.00D-06.
 Requested convergence on             energy=1.00D-06.
 No special actions if energy rises.
 Using DIIS extrapolation, IDIIS=  1040.
 Integral symmetry usage will be decided dynamically.
        40530 words used for storage of precomputed grid.
 Keep R1 ints in memory in canonical form, NReq=930280.
 IEnd=       60593 IEndB=       60593 NGot=    13107200 MDV=    13051901
 LenX=    13051901 LenY=    13051019
 Symmetry not used in FoFDir.
 MinBra= 0 MaxBra= 1 Meth= 1.
 IRaf=       0 NMat=   1 IRICut=       1 DoRegI=T DoRafI=F ISym2E= 0 JSym2E=0.
 Integral accuracy reduced to 1.0D-05 until final iterations.

 Cycle   1  Pass 0  IDiag  1:
 E= -40.4202530726785    
 DIIS: error= 7.09D-02 at cycle   1 NSaved=   1.
 NSaved= 1 IEnMin= 1 EnMin= -40.4202530726785     IErMin= 1 ErrMin= 7.09D-02
 ErrMax= 7.09D-02 EMaxC= 1.00D-01 BMatC= 8.10D-02 BMatP= 8.10D-02
 IDIUse=3 WtCom= 2.91D-01 WtEn= 7.09D-01
 Coeff-Com:  0.100D+01
 Coeff-En:   0.100D+01
 Coeff:      0.100D+01
 Gap=     0.430 Goal=   None    Shift=    0.000
 GapD=    0.430 DampG=2.000 DampE=0.500 DampFc=1.0000 IDamp=-1.
 RMSDP=2.98D-02 MaxDP=1.56D-01              OVMax= 1.90D-01

 Cycle   2  Pass 0  IDiag  1:
 E= -40.3991292330953     Delta-E=        0.021123839583 Rises=F Damp=F
 DIIS: error= 7.37D-02 at cycle   2 NSaved=   2.
 NSaved= 2 IEnMin= 1 EnMin= -40.4202530726785     IErMin= 1 ErrMin= 7.09D-02
 ErrMax= 7.37D-02 EMaxC= 1.00D-01 BMatC= 9.73D-02 BMatP= 8.10D-02
 IDIUse=2 WtCom= 0.00D+00 WtEn= 1.00D+00
 Coeff-En:   0.550D+00 0.450D+00
 Coeff:      0.550D+00 0.450D+00
 Gap=     0.499 Goal=   None    Shift=    0.000
 RMSDP=1.51D-02 MaxDP=7.10D-02 DE= 2.11D-02 OVMax= 8.92D-02

 Cycle   3  Pass 0  IDiag  1:
 E= -40.5103738380101     Delta-E=       -0.111244604915 Rises=F Damp=F
 DIIS: error= 3.87D-03 at cycle   3 NSaved=   3.
 NSaved= 3 IEnMin= 3 EnMin= -40.5103738380101     IErMin= 3 ErrMin= 3.87D-03
 ErrMax= 3.87D-03 EMaxC= 1.00D-01 BMatC= 2.70D-04 BMatP= 8.10D-02
 IDIUse=3 WtCom= 9.61D-01 WtEn= 3.87D-02
 Coeff-Com:  0.146D-01-0.406D-01 0.103D+01
 Coeff-En:   0.000D+00 0.000D+00 0.100D+01
 Coeff:      0.140D-01-0.390D-01 0.103D+01
 Gap=     0.508 Goal=   None    Shift=    0.000
 RMSDP=6.91D-04 MaxDP=4.22D-03 DE=-1.11D-01 OVMax= 4.51D-03

 Cycle   4  Pass 0  IDiag  1:
 E= -40.5106532393660     Delta-E=       -0.000279401356 Rises=F Damp=F
 DIIS: error= 2.77D-05 at cycle   4 NSaved=   4.
 NSaved= 4 IEnMin= 4 EnMin= -40.5106532393660     IErMin= 4 ErrMin= 2.77D-05
 ErrMax= 2.77D-05 EMaxC= 1.00D-01 BMatC= 1.64D-08 BMatP= 2.70D-04
 IDIUse=1 WtCom= 1.00D+00 WtEn= 0.00D+00
 Coeff-Com:  0.146D-02-0.458D-03 0.372D-01 0.962D+00
 Coeff:      0.146D-02-0.458D-03 0.372D-01 0.962D+00
 Gap=     0.508 Goal=   None    Shift=    0.000
 RMSDP=8.29D-06 MaxDP=3.72D-05 DE=-2.79D-04 OVMax= 4.10D-05

 Initial convergence to 1.0D-05 achieved.  Increase integral accuracy.
 Cycle   5  Pass 1  IDiag  1:
 E= -40.5106234702165     Delta-E=        0.000029769149 Rises=F Damp=F
 DIIS: error= 9.22D-06 at cycle   1 NSaved=   1.
 NSaved= 1 IEnMin= 1 EnMin= -40.5106234702165     IErMin= 1 ErrMin= 9.22D-06
 ErrMax= 9.22D-06 EMaxC= 1.00D-01 BMatC= 2.80D-09 BMatP= 2.80D-09
 IDIUse=1 WtCom= 1.00D+00 WtEn= 0.00D+00
 Coeff-Com:  0.100D+01
 Coeff:      0.100D+01
 Gap=     0.508 Goal=   None    Shift=    0.000
 RMSDP=8.29D-06 MaxDP=3.72D-05 DE= 2.98D-05 OVMax= 2.78D-05

 Cycle   6  Pass 1  IDiag  1:
 E= -40.5106234749666     Delta-E=       -0.000000004750 Rises=F Damp=F
 DIIS: error= 4.53D-06 at cycle   2 NSaved=   2.
 NSaved= 2 IEnMin= 2 EnMin= -40.5106234749666     IErMin= 2 ErrMin= 4.53D-06
 ErrMax= 4.53D-06 EMaxC= 1.00D-01 BMatC= 3.43D-10 BMatP= 2.80D-09
 IDIUse=1 WtCom= 1.00D+00 WtEn= 0.00D+00
 Coeff-Com:  0.194D+00 0.806D+00
 Coeff:      0.194D+00 0.806D+00
 Gap=     0.508 Goal=   None    Shift=    0.000
 RMSDP=1.83D-06 MaxDP=8.48D-06 DE=-4.75D-09 OVMax= 1.09D-05

 Cycle   7  Pass 1  IDiag  1:
 E= -40.5106234751670     Delta-E=       -0.000000000200 Rises=F Damp=F
 DIIS: error= 3.44D-06 at cycle   3 NSaved=   3.
 NSaved= 3 IEnMin= 3 EnMin= -40.5106234751670     IErMin= 3 ErrMin= 3.44D-06
 ErrMax= 3.44D-06 EMaxC= 1.00D-01 BMatC= 2.10D-10 BMatP= 3.43D-10
 IDIUse=1 WtCom= 1.00D+00 WtEn= 0.00D+00
 Coeff-Com: -0.256D-01 0.429D+00 0.597D+00
 Coeff:     -0.256D-01 0.429D+00 0.597D+00
 Gap=     0.508 Goal=   None    Shift=    0.000
 RMSDP=5.77D-07 MaxDP=3.75D-06 DE=-2.00D-10 OVMax= 3.78D-06

 Cycle   8  Pass 1  IDiag  1:
 E= -40.5106234753832     Delta-E=       -0.000000000216 Rises=F Damp=F
 DIIS: error= 6.57D-08 at cycle   4 NSaved=   4.
 NSaved= 4 IEnMin= 4 EnMin= -40.5106234753832     IErMin= 4 ErrMin= 6.57D-08
 ErrMax= 6.57D-08 EMaxC= 1.00D-01 BMatC= 5.26D-14 BMatP= 2.10D-10
 IDIUse=1 WtCom= 1.00D+00 WtEn= 0.00D+00
 Coeff-Com: -0.176D-02 0.855D-02 0.105D-03 0.993D+00
 Coeff:     -0.176D-02 0.855D-02 0.105D-03 0.993D+00
 Gap=     0.508 Goal=   None    Shift=    0.000
 RMSDP=1.43D-08 MaxDP=7.18D-08 DE=-2.16D-10 OVMax= 9.26D-08

 Cycle   9  Pass 1  IDiag  1:
 E= -40.5106234753833     Delta-E=       -0.000000000000 Rises=F Damp=F
 DIIS: error= 2.93D-09 at cycle   5 NSaved=   5.
 NSaved= 5 IEnMin= 5 EnMin= -40.5106234753833     IErMin= 5 ErrMin= 2.93D-09
 ErrMax= 2.93D-09 EMaxC= 1.00D-01 BMatC= 1.20D-16 BMatP= 5.26D-14
 IDIUse=1 WtCom= 1.00D+00 WtEn= 0.00D+00
 Coeff-Com:  0.795D-04-0.113D-02-0.865D-03-0.310D-02 0.101D+01
 Coeff:      0.795D-04-0.113D-02-0.865D-03-0.310D-02 0.101D+01
 Gap=     0.508 Goal=   None    Shift=    0.000
 RMSDP=8.80D-10 MaxDP=4.75D-09 DE=-1.14D-13 OVMax= 4.85D-09

 SCF Done:  E(RB3LYP) =  -40.5106234754     A.U. after    9 cycles
             Convg  =    0.8798D-09             -V/T =  2.0064
 KE= 4.025496004397D+01 PE=-1.200752319307D+02 EE= 2.587425921590D+01
 Leave Link  502 at Sat Aug 17 14:46:00 2024, MaxMem=   13107200 cpu:       0.7
 (Enter /programs/64bit/g09/g09-gfortran/bin/l601.exe)
 Copying SCF densities to generalized density rwf, IOpCl= 0 IROHF=0.

 **********************************************************************

            Population analysis using the SCF density.

 **********************************************************************

 Orbital symmetries:
       Occupied  (A1) (A1) (T2) (T2) (T2)
       Virtual   (A1) (T2) (T2) (T2) (T2) (T2) (T2) (T2) (T2) (T2)
                 (A1) (A1)
 The electronic state is 1-A1.
 Alpha  occ. eigenvalues --  -10.15869  -0.69382  -0.39040  -0.39040  -0.39040
 Alpha virt. eigenvalues --    0.11807   0.17663   0.17663   0.17663   0.54337
 Alpha virt. eigenvalues --    0.54337   0.54337   0.94129   0.94129   0.94129
 Alpha virt. eigenvalues --    0.94950   1.11106
     Molecular Orbital Coefficients:
                           1         2         3         4         5
                        (A1)--O   (A1)--O   (T2)--O   (T2)--O   (T2)--O
     Eigenvalues --   -10.15869  -0.69382  -0.39040  -0.39040  -0.39040
   1 1   C  1S          0.99520  -0.19923   0.00000   0.00000   0.00000
   2        2S          0.03641   0.38333   0.00000   0.00000   0.00000
   3        2PX         0.00000   0.00000   0.44775   0.00000   0.00000
   4        2PY         0.00000   0.00000   0.00000   0.44775   0.00000
   5        2PZ         0.00000   0.00000   0.00000   0.00000   0.44775
   6        3S         -0.02933   0.36391   0.00000   0.00000   0.00000
   7        3PX         0.00000   0.00000   0.20716   0.00000   0.00000
   8        3PY         0.00000   0.00000   0.00000   0.20716   0.00000
   9        3PZ         0.00000   0.00000   0.00000   0.00000   0.20716
  10 2   H  1S         -0.00075   0.13521   0.17387   0.17387   0.17387
  11        2S          0.00560   0.03732   0.14508   0.14508   0.14508
  12 3   H  1S         -0.00075   0.13521  -0.17387  -0.17387   0.17387
  13        2S          0.00560   0.03732  -0.14508  -0.14508   0.14508
  14 4   H  1S         -0.00075   0.13521  -0.17387   0.17387  -0.17387
  15        2S          0.00560   0.03732  -0.14508   0.14508  -0.14508
  16 5   H  1S         -0.00075   0.13521   0.17387  -0.17387  -0.17387
  17        2S          0.00560   0.03732   0.14508  -0.14508  -0.14508
                           6         7         8         9        10
                        (A1)--V   (T2)--V   (T2)--V   (T2)--V   (T2)--V
     Eigenvalues --     0.11807   0.17663   0.17663   0.17663   0.54337
   1 1   C  1S         -0.15931   0.00000   0.00000   0.00000   0.00000
   2        2S          0.18052   0.00000   0.00000   0.00000   0.00000
   3        2PX         0.00000   0.00000   0.00000   0.38552   0.00000
   4        2PY         0.00000   0.00000   0.38552   0.00000   0.00000
   5        2PZ         0.00000   0.38552   0.00000   0.00000  -0.80119
   6        3S          2.59498   0.00000   0.00000   0.00000   0.00000
   7        3PX         0.00000   0.00000   0.00000   1.36626   0.00000
   8        3PY         0.00000   0.00000   1.36626   0.00000   0.00000
   9        3PZ         0.00000   1.36626   0.00000   0.00000   1.57001
  10 2   H  1S         -0.01982  -0.07544  -0.07544  -0.07544  -0.28830
  11        2S         -0.98984  -1.09112  -1.09112  -1.09112  -0.19949
  12 3   H  1S         -0.01982  -0.07544   0.07544   0.07544  -0.28830
  13        2S         -0.98984  -1.09112   1.09112   1.09112  -0.19949
  14 4   H  1S         -0.01982   0.07544  -0.07544   0.07544   0.28830
  15        2S         -0.98984   1.09112  -1.09112   1.09112   0.19949
  16 5   H  1S         -0.01982   0.07544   0.07544  -0.07544   0.28830
  17        2S         -0.98984   1.09112   1.09112  -1.09112   0.19949
                          11        12        13        14        15
                        (T2)--V   (T2)--V   (T2)--V   (T2)--V   (T2)--V
     Eigenvalues --     0.54337   0.54337   0.94129   0.94129   0.94129
   1 1   C  1S          0.00000   0.00000   0.00000   0.00000   0.00000
   2        2S          0.00000   0.00000   0.00000   0.00000   0.00000
   3        2PX        -0.80119   0.00000   0.00000   0.00000  -0.82724
   4        2PY         0.00000  -0.80119   0.00000  -0.82724   0.00000
   5        2PZ         0.00000   0.00000  -0.82724   0.00000   0.00000
   6        3S          0.00000   0.00000   0.00000   0.00000   0.00000
   7        3PX         1.57001   0.00000   0.00000   0.00000   1.04749
   8        3PY         0.00000   1.57001   0.00000   1.04749   0.00000
   9        3PZ         0.00000   0.00000   1.04749   0.00000   0.00000
  10 2   H  1S         -0.28830  -0.28830   0.60660   0.60660   0.60660
  11        2S         -0.19949  -0.19949  -0.96851  -0.96851  -0.96851
  12 3   H  1S          0.28830   0.28830   0.60660  -0.60660  -0.60660
  13        2S          0.19949   0.19949  -0.96851   0.96851   0.96851
  14 4   H  1S          0.28830  -0.28830  -0.60660   0.60660  -0.60660
  15        2S          0.19949  -0.19949   0.96851  -0.96851   0.96851
  16 5   H  1S         -0.28830   0.28830  -0.60660  -0.60660   0.60660
  17        2S         -0.19949   0.19949   0.96851   0.96851  -0.96851
                          16        17
                        (A1)--V   (A1)--V
     Eigenvalues --     0.94950   1.11106
   1 1   C  1S          0.10714  -0.06919
   2        2S         -0.81189  -2.24480
   3        2PX         0.00000   0.00000
   4        2PY         0.00000   0.00000
   5        2PZ         0.00000   0.00000
   6        3S          1.00445   5.34084
   7        3PX         0.00000   0.00000
   8        3PY         0.00000   0.00000
   9        3PZ         0.00000   0.00000
  10 2   H  1S          0.65491  -0.28993
  11        2S         -0.51949  -1.01865
  12 3   H  1S          0.65491  -0.28993
  13        2S         -0.51949  -1.01865
  14 4   H  1S          0.65491  -0.28993
  15        2S         -0.51949  -1.01865
  16 5   H  1S          0.65491  -0.28993
  17        2S         -0.51949  -1.01865
     Density Matrix:
                           1         2         3         4         5
   1 1   C  1S          2.06022
   2        2S         -0.08027   0.29653
   3        2PX         0.00000   0.00000   0.40095
   4        2PY         0.00000   0.00000   0.00000   0.40095
   5        2PZ         0.00000   0.00000   0.00000   0.00000   0.40095
   6        3S         -0.20338   0.27686   0.00000   0.00000   0.00000
   7        3PX         0.00000   0.00000   0.18551   0.00000   0.00000
   8        3PY         0.00000   0.00000   0.00000   0.18551   0.00000
   9        3PZ         0.00000   0.00000   0.00000   0.00000   0.18551
  10 2   H  1S         -0.05538   0.10361   0.15570   0.15570   0.15570
  11        2S         -0.00373   0.02902   0.12992   0.12992   0.12992
  12 3   H  1S         -0.05538   0.10361  -0.15570  -0.15570   0.15570
  13        2S         -0.00373   0.02902  -0.12992  -0.12992   0.12992
  14 4   H  1S         -0.05538   0.10361  -0.15570   0.15570  -0.15570
  15        2S         -0.00373   0.02902  -0.12992   0.12992  -0.12992
  16 5   H  1S         -0.05538   0.10361   0.15570  -0.15570  -0.15570
  17        2S         -0.00373   0.02902   0.12992  -0.12992  -0.12992
                           6         7         8         9        10
   6        3S          0.26659
   7        3PX         0.00000   0.08583
   8        3PY         0.00000   0.00000   0.08583
   9        3PZ         0.00000   0.00000   0.00000   0.08583
  10 2   H  1S          0.09846   0.07204   0.07204   0.07204   0.21794
  11        2S          0.02683   0.06011   0.06011   0.06011   0.16143
  12 3   H  1S          0.09846  -0.07204  -0.07204   0.07204  -0.02389
  13        2S          0.02683  -0.06011  -0.06011   0.06011  -0.04037
  14 4   H  1S          0.09846  -0.07204   0.07204  -0.07204  -0.02389
  15        2S          0.02683  -0.06011   0.06011  -0.06011  -0.04037
  16 5   H  1S          0.09846   0.07204  -0.07204  -0.07204  -0.02389
  17        2S          0.02683   0.06011  -0.06011  -0.06011  -0.04037
                          11        12        13        14        15
  11        2S          0.12914
  12 3   H  1S         -0.04037   0.21794
  13        2S         -0.03925   0.16143   0.12914
  14 4   H  1S         -0.04037  -0.02389  -0.04037   0.21794
  15        2S         -0.03925  -0.04037  -0.03925   0.16143   0.12914
  16 5   H  1S         -0.04037  -0.02389  -0.04037  -0.02389  -0.04037
  17        2S         -0.03925  -0.04037  -0.03925  -0.04037  -0.03925
                          16        17
  16 5   H  1S          0.21794
  17        2S          0.16143   0.12914
    Full Mulliken population analysis:
                           1         2         3         4         5
   1 1   C  1S          2.06022
   2        2S         -0.01758   0.29653
   3        2PX         0.00000   0.00000   0.40095
   4        2PY         0.00000   0.00000   0.00000   0.40095
   5        2PZ         0.00000   0.00000   0.00000   0.00000   0.40095
   6        3S         -0.03748   0.22489   0.00000   0.00000   0.00000
   7        3PX         0.00000   0.00000   0.10570   0.00000   0.00000
   8        3PY         0.00000   0.00000   0.00000   0.10570   0.00000
   9        3PZ         0.00000   0.00000   0.00000   0.00000   0.10570
  10 2   H  1S         -0.00181   0.02836   0.03320   0.03320   0.03320
  11        2S         -0.00034   0.01382   0.01993   0.01993   0.01993
  12 3   H  1S         -0.00181   0.02836   0.03320   0.03320   0.03320
  13        2S         -0.00034   0.01382   0.01993   0.01993   0.01993
  14 4   H  1S         -0.00181   0.02836   0.03320   0.03320   0.03320
  15        2S         -0.00034   0.01382   0.01993   0.01993   0.01993
  16 5   H  1S         -0.00181   0.02836   0.03320   0.03320   0.03320
  17        2S         -0.00034   0.01382   0.01993   0.01993   0.01993
                           6         7         8         9        10
   6        3S          0.26659
   7        3PX         0.00000   0.08583
   8        3PY         0.00000   0.00000   0.08583
   9        3PZ         0.00000   0.00000   0.00000   0.08583
  10 2   H  1S          0.03712   0.02142   0.02142   0.02142   0.21794
  11        2S          0.01890   0.02022   0.02022   0.02022   0.10627
  12 3   H  1S          0.03712   0.02142   0.02142   0.02142  -0.00044
  13        2S          0.01890   0.02022   0.02022   0.02022  -0.00602
  14 4   H  1S          0.03712   0.02142   0.02142   0.02142  -0.00044
  15        2S          0.01890   0.02022   0.02022   0.02022  -0.00602
  16 5   H  1S          0.03712   0.02142   0.02142   0.02142  -0.00044
  17        2S          0.01890   0.02022   0.02022   0.02022  -0.00602
                          11        12        13        14        15
  11        2S          0.12914
  12 3   H  1S         -0.00602   0.21794
  13        2S         -0.01576   0.10627   0.12914
  14 4   H  1S         -0.00602  -0.00044  -0.00602   0.21794
  15        2S         -0.01576  -0.00602  -0.01576   0.10627   0.12914
  16 5   H  1S         -0.00602  -0.00044  -0.00602  -0.00044  -0.00602
  17        2S         -0.01576  -0.00602  -0.01576  -0.00602  -0.01576
                          16        17
  16 5   H  1S          0.21794
  17        2S          0.10627   0.12914
     Gross orbital populations:
                           1
   1 1   C  1S          1.99654
   2        2S          0.67252
   3        2PX         0.71919
   4        2PY         0.71919
   5        2PZ         0.71919
   6        3S          0.67810
   7        3PX         0.35809
   8        3PY         0.35809
   9        3PZ         0.35809
  10 2   H  1S          0.53235
  11        2S          0.32290
  12 3   H  1S          0.53235
  13        2S          0.32290
  14 4   H  1S          0.53235
  15        2S          0.32290
  16 5   H  1S          0.53235
  17        2S          0.32290
          Condensed to atoms (all electrons):
              1          2          3          4          5
     1  C    5.057526   0.380367   0.380367   0.380367   0.380367
     2  H    0.380367   0.559618  -0.028244  -0.028244  -0.028244
     3  H    0.380367  -0.028244   0.559618  -0.028244  -0.028244
     4  H    0.380367  -0.028244  -0.028244   0.559618  -0.028244
     5  H    0.380367  -0.028244  -0.028244  -0.028244   0.559618
 Mulliken atomic charges:
              1
     1  C   -0.578993
     2  H    0.144748
     3  H    0.144748
     4  H    0.144748
     5  H    0.144748
 Sum of Mulliken atomic charges =   0.00000
 Mulliken charges with hydrogens summed into heavy atoms:
              1
     1  C    0.000000
 Sum of Mulliken charges with hydrogens summed into heavy atoms =   0.00000
 Electronic spatial extent (au):  <R**2>=             35.4231
 Charge=              0.0000 electrons
 Dipole moment (field-independent basis, Debye):
    X=             -0.0000    Y=             -0.0000    Z=             -0.0000  Tot=              0.0000
 Quadrupole moment (field-independent basis, Debye-Ang):
   XX=             -8.2728   YY=             -8.2728   ZZ=             -8.2728
   XY=             -0.0000   XZ=             -0.0000   YZ=             -0.0000
 Traceless Quadrupole moment (field-independent basis, Debye-Ang):
   XX=             -0.0000   YY=              0.0000   ZZ=              0.0000
   XY=             -0.0000   XZ=             -0.0000   YZ=             -0.0000
 Octapole moment (field-independent basis, Debye-Ang**2):
  XXX=             -0.0000  YYY=              0.0000  ZZZ=              0.0000  XYY=              0.0000
  XXY=              0.0000  XXZ=              0.0000  XZZ=              0.0000  YZZ=             -0.0000
  YYZ=             -0.0000  XYZ=              0.6306
 Hexadecapole moment (field-independent basis, Debye-Ang**3):
 XXXX=            -15.6993 YYYY=            -15.6993 ZZZZ=            -15.6993 XXXY=             -0.0000
 XXXZ=             -0.0000 YYYX=             -0.0000 YYYZ=             -0.0000 ZZZX=             -0.0000
 ZZZY=             -0.0000 XXYY=             -4.8267 XXZZ=             -4.8267 YYZZ=             -4.8267
 XXYZ=             -0.0000 YYXZ=             -0.0000 ZZXY=             -0.0000
 N-N= 1.343538919541D+01 E-N=-1.200752318650D+02  KE= 4.025496004397D+01
 Symmetry A    KE= 3.446520251388D+01
 Symmetry B1   KE= 1.929919176700D+00
 Symmetry B2   KE= 1.929919176700D+00
 Symmetry B3   KE= 1.929919176700D+00
 Orbital energies and kinetic energies (alpha):
                                 1                 2
   1         (A1)--O         -10.158691         15.958751
   2         (A1)--O          -0.693823          1.273851
   3         (T2)--O          -0.390403          0.964960
   4         (T2)--O          -0.390403          0.964960
   5         (T2)--O          -0.390403          0.964960
   6         (A1)--V           0.118074          0.949161
   7         (T2)--V           0.176628          0.841491
   8         (T2)--V           0.176628          0.841491
   9         (T2)--V           0.176628          0.841491
  10         (T2)--V           0.543372          1.603083
  11         (T2)--V           0.543372          1.603083
  12         (T2)--V           0.543372          1.603083
  13         (T2)--V           0.941290          2.705867
  14         (T2)--V           0.941290          2.705867
  15         (T2)--V           0.941290          2.705867
  16         (A1)--V           0.949496          2.834450
  17         (A1)--V           1.111065          2.056609
 Total kinetic energy from orbitals= 4.025496004397D+01
 No NMR shielding tensors so no spin-rotation constants.
 Leave Link  601 at Sat Aug 17 14:46:00 2024, MaxMem=   13107200 cpu:       0.1
 (Enter /programs/64bit/g09/g09-gfortran/bin/l701.exe)
 Compute integral first derivatives.
 ... and contract with generalized density number  0.
 Leave Link  701 at Sat Aug 17 14:46:00 2024, MaxMem=   13107200 cpu:       0.1
 (Enter /programs/64bit/g09/g09-gfortran/bin/l702.exe)
 L702 exits ... SP integral derivatives will be done elsewhere.
 Leave Link  702 at Sat Aug 17 14:46:00 2024, MaxMem=   13107200 cpu:       0.0
 (Enter /programs/64bit/g09/g09-gfortran/bin/l703.exe)
 Compute integral first derivatives, UseDBF=F ICtDFT=           0.
 Integral derivatives from FoFDir, PRISM(SPDF).
 Calling FoFJK, ICntrl=      2127 FMM=F ISym2X=1 I1Cent= 0 IOpClX= 0 NMat=1 NMatS=1 NMatT=0.
 FoFCou: FMM=F IPFlag=           0 FMFlag=      100000 FMFlg1=         800
         NFxFlg=           0 DoJE=F BraDBF=F KetDBF=F FulRan=T
         Omega=  0.000000  0.000000  1.000000  0.000000  0.000000 ICntrl=    2127 IOpCl=  0
         NMat0=    1 NMatS0=    1 NMatT0=    0 NMatD0=    1 NMtDS0=    0 NMtDT0=    0
         I1Cent=           0 NGrid=           0.
 Petite list used in FoFCou.
 Leave Link  703 at Sat Aug 17 14:46:00 2024, MaxMem=   13107200 cpu:       0.3
 (Enter /programs/64bit/g09/g09-gfortran/bin/l716.exe)
 Dipole        = 0.00000000D+00-4.44089210D-16-2.22044605D-16
 ***** Axes restored to original set *****
 -------------------------------------------------------------------
 Center     Atomic                   Forces (Hartrees/Bohr)
 Number     Number              X              Y              Z
 -------------------------------------------------------------------
      1        6           0.000000000   -0.000000000    0.000000000
      2        1          -0.000000000    0.000000000    0.002125162
      3        1           0.002003622   -0.000000000   -0.000708387
      4        1          -0.001001811   -0.001735188   -0.000708387
      5        1          -0.001001811    0.001735188   -0.000708387
 -------------------------------------------------------------------
 Cartesian Forces:  Max     0.002125162 RMS     0.001097429
 Leave Link  716 at Sat Aug 17 14:46:00 2024, MaxMem=   13107200 cpu:       0.0
 (Enter /programs/64bit/g09/g09-gfortran/bin/l103.exe)

 GradGradGradGradGradGradGradGradGradGradGradGradGradGradGradGradGradGrad
 Berny optimization.
 Internal  Forces:  Max     0.002125162 RMS     0.001135947
 Search for a local minimum.
 Step number   1 out of a maximum of   24
 All quantities printed in internal units (Hartrees-Bohrs-Radians)
 RMS Force = .11359D-02 SwitMx=.10000D-02 MixMth= 1
 Mixed Optimization -- RFO/linear search
 Second derivative matrix not updated -- first step.
 The second derivative matrix:
                          R1        R2        R3        R4        A1
           R1           0.34813
           R2           0.00000   0.34813
           R3           0.00000   0.00000   0.34813
           R4           0.00000   0.00000   0.00000   0.34813
           A1           0.00000   0.00000   0.00000   0.00000   0.16000
           A2           0.00000   0.00000   0.00000   0.00000   0.00000
           A3           0.00000   0.00000   0.00000   0.00000   0.00000
           A4           0.00000   0.00000   0.00000   0.00000   0.00000
           A5           0.00000   0.00000   0.00000   0.00000   0.00000
           A6           0.00000   0.00000   0.00000   0.00000   0.00000
           D1           0.00000   0.00000   0.00000   0.00000   0.00000
           D2           0.00000   0.00000   0.00000   0.00000   0.00000
           D3           0.00000   0.00000   0.00000   0.00000   0.00000
           D4           0.00000   0.00000   0.00000   0.00000   0.00000
                          A2        A3        A4        A5        A6
           A2           0.16000
           A3           0.00000   0.16000
           A4           0.00000   0.00000   0.16000
           A5           0.00000   0.00000   0.00000   0.16000
           A6           0.00000   0.00000   0.00000   0.00000   0.16000
           D1           0.00000   0.00000   0.00000   0.00000   0.00000
           D2           0.00000   0.00000   0.00000   0.00000   0.00000
           D3           0.00000   0.00000   0.00000   0.00000   0.00000
           D4           0.00000   0.00000   0.00000   0.00000   0.00000
                          D1        D2        D3        D4
           D1           0.00235
           D2           0.00000   0.00235
           D3           0.00000   0.00000   0.00235
           D4           0.00000   0.00000   0.00000   0.00235
     Eigenvalues ---    0.05086   0.05718   0.08643   0.16000   0.16000
     Eigenvalues ---    0.34813   0.34813   0.34813   0.348131000.00000
     Eigenvalues --- 1000.000001000.000001000.000001000.00000
 RFO step:  Lambda=-5.18928260D-05 EMin= 5.08565158D-02
 Linear search not attempted -- first point.
 Iteration  1 RMS(Cart)=  0.00326254 RMS(Int)=  0.00000000
 Iteration  2 RMS(Cart)=  0.00000000 RMS(Int)=  0.00000000
 ClnCor:  largest displacement from symmetrization is 8.49D-15 for atom     2.
 Variable       Old X    -DE/DX   Delta X   Delta X   Delta X     New X
                                 (Linear)    (Quad)   (Total)
    R1        2.05980   0.00213   0.00000   0.00610   0.00610   2.06591
    R2        2.05980   0.00213   0.00000   0.00610   0.00610   2.06591
    R3        2.05980   0.00213   0.00000   0.00610   0.00610   2.06591
    R4        2.05980   0.00213   0.00000   0.00610   0.00610   2.06591
    A1        1.91063   0.00000   0.00000   0.00000   0.00000   1.91063
    A2        1.91063  -0.00000   0.00000  -0.00000   0.00000   1.91063
    A3        1.91063  -0.00000   0.00000  -0.00000   0.00000   1.91063
    A4        1.91063  -0.00000   0.00000  -0.00000   0.00000   1.91063
    A5        1.91063   0.00000   0.00000   0.00000   0.00000   1.91063
    A6        1.91063   0.00000   0.00000   0.00000   0.00000   1.91063
    D1       -2.09440  -0.00000   0.00000  -0.00000   0.00000  -2.09440
    D2        2.09440   0.00000   0.00000   0.00000   0.00000   2.09440
    D3       -2.09440   0.00000   0.00000   0.00000   0.00000  -2.09440
    D4        2.09440   0.00000   0.00000   0.00000   0.00000   2.09440
         Item               Value     Threshold  Converged?
 Maximum Force            0.002125     0.000450     NO 
 RMS     Force            0.001136     0.000300     NO 
 Maximum Displacement     0.006104     0.001800     NO 
 RMS     Displacement     0.003263     0.001200     NO 
 Predicted change in Energy=-2.594641D-05
 GradGradGradGradGradGradGradGradGradGradGradGradGradGradGradGradGradGrad

 Leave Link  103 at Sat Aug 17 14:46:00 2024, MaxMem=   13107200 cpu:       0.0
 (Enter /programs/64bit/g09/g09-gfortran/bin/l202.exe)
                          Input orientation:                          
 ---------------------------------------------------------------------
 Center     Atomic      Atomic             Coordinates (Angstroms)
 Number     Number       Type             X           Y           Z
 ---------------------------------------------------------------------
      1          6           0        0.000000    0.000000   -0.000000
      2          1           0        0.000000    0.000000    1.093230
      3          1           0        1.030707   -0.000000   -0.364410
      4          1           0       -0.515354   -0.892618   -0.364410
      5          1           0       -0.515354    0.892618   -0.364410
 ---------------------------------------------------------------------
                    Distance matrix (angstroms):
                    1          2          3          4          5
     1  C    0.000000
     2  H    1.093230   0.000000
     3  H    1.093230   1.785237   0.000000
     4  H    1.093230   1.785237   1.785237   0.000000
     5  H    1.093230   1.785237   1.785237   1.785237   0.000000
 Stoichiometry    CH4
 Framework group  TD[O(C),4C3(H)]
 Deg. of freedom     1
 Prev. full point group           TD      NOp  24
 Prev. largest Abelian subgroup   D2      NOp   4
       concise Abelian subgroup   D2      NOp   4
                   Standard orientation:
 ---------------------------------------------------------------------
 Center     Atomic                     Coordinates (Angstroms)
 Number     Number                        X           Y           Z
 ---------------------------------------------------------------------
      1          6                    0.000000    0.000000    0.000000
      2          1                    0.773030    0.720903    0.279059
      3          1                   -0.257677   -0.612380    0.868185
      4          1                   -0.888853    0.534354   -0.345771
      5          1                    0.373500   -0.642877   -0.801473
 ---------------------------------------------------------------------
 TstSym:  Max error for IOp=  2 IAt=    3 Err= 1.19D+00
 TstSym:  IOp= 25 I=    6 IP=    4 Err= 1.19D+00
  CI=  0.000000000000D+00  0.000000000000D+00  0.000000000000D+00
   T= -4.869385128435D-01  1.157231048678D+00 -1.640631360151D+00
 CIP= -1.679689405420D+00  1.009781971595D+00 -6.534125392021D-01
 Unable to use previous symmetry information.  Redetermining point group.
 No symmetry information on checkpoint file.  Reassigning symmetry.
 Symm:  InNGrp=TD   InAxis=0.
 Stoichiometry    CH4
 Framework group  TD[O(C),4C3(H)]
 Deg. of freedom     1
 Full point group                 TD      NOp  24
 Largest Abelian subgroup         D2      NOp   4
 Largest concise Abelian subgroup D2      NOp   4
                         Standard orientation:                         
 ---------------------------------------------------------------------
 Center     Atomic      Atomic             Coordinates (Angstroms)
 Number     Number       Type             X           Y           Z
 ---------------------------------------------------------------------
      1          6           0        0.000000    0.000000    0.000000
      2          1           0        0.631177    0.631177    0.631177
      3          1           0       -0.631177   -0.631177    0.631177
      4          1           0       -0.631177    0.631177   -0.631177
      5          1           0        0.631177   -0.631177   -0.631177
 ---------------------------------------------------------------------
 Rotational constants (GHZ):    157.3404193    157.3404193    157.3404193
 Leave Link  202 at Sat Aug 17 14:46:01 2024, MaxMem=   13107200 cpu:       0.0
 (Enter /programs/64bit/g09/g09-gfortran/bin/l301.exe)
 Standard basis: 6-31G (6D, 7F)
 Ernie: Thresh=  0.10000D-02 Tol=  0.10000D-05 Strict=F.
 There are     5 symmetry adapted basis functions of A   symmetry.
 There are     4 symmetry adapted basis functions of B1  symmetry.
 There are     4 symmetry adapted basis functions of B2  symmetry.
 There are     4 symmetry adapted basis functions of B3  symmetry.
 Integral buffers will be    131072 words long.
 Raffenetti 2 integral format.
 Two-electron integral symmetry is turned on.
    17 basis functions,    38 primitive gaussians,    17 cartesian basis functions
     5 alpha electrons        5 beta electrons
       nuclear repulsion energy        13.3956946950 Hartrees.
 IExCor=  402 DFT=T Ex+Corr=B3LYP ExCW=0 ScaHFX=  0.200000
 ScaDFX=  0.800000  0.720000  1.000000  0.810000 ScalE2=  1.000000  1.000000
 IRadAn=      0 IRanWt=     -1 IRanGd=            0 ICorTp=0
 NAtoms=    5 NActive=    5 NUniq=    2 SFac= 3.00D+00 NAtFMM=   80 NAOKFM=F Big=F
 Leave Link  301 at Sat Aug 17 14:46:01 2024, MaxMem=   13107200 cpu:       0.1
 (Enter /programs/64bit/g09/g09-gfortran/bin/l302.exe)
 NPDir=0 NMtPBC=     1 NCelOv=     1 NCel=       1 NClECP=     1 NCelD=      1
         NCelK=      1 NCelE2=     1 NClLst=     1 CellRange=     0.0.
 One-electron integrals computed using PRISM.
 One-electron integral symmetry used in STVInt
 NBasis=    17 RedAO= T  NBF=     5     4     4     4
 NBsUse=    17 1.00D-06 NBFU=     5     4     4     4
 Precomputing XC quadrature grid using
 IXCGrd= 2 IRadAn=           0 IRanWt=          -1 IRanGd=           0 AccXCQ= 1.00D-10.
 NRdTot=     304 NPtTot=       38382 NUsed=       40588 NTot=       40620
 NSgBfM=    17    17    17    17    17 NAtAll=     5     5.
 Leave Link  302 at Sat Aug 17 14:46:01 2024, MaxMem=   13107200 cpu:       0.1
 (Enter /programs/64bit/g09/g09-gfortran/bin/l303.exe)
 DipDrv:  MaxL=1.
 Leave Link  303 at Sat Aug 17 14:46:01 2024, MaxMem=   13107200 cpu:       0.0
 (Enter /programs/64bit/g09/g09-gfortran/bin/l401.exe)
 Initial guess read from the read-write file.
 B after Tr=     0.000000    0.000000    0.000000
         Rot=    1.000000    0.000000    0.000000    0.000000 Ang=   0.00 deg.
 Guess basis will be translated and rotated to current coordinates.
 Initial guess orbital symmetries:
       Occupied  (A1) (A1) (T2) (T2) (T2)
       Virtual   (A1) (T2) (T2) (T2) (T2) (T2) (T2) (T2) (T2) (T2)
                 (A1) (A1)
 The electronic state of the initial guess is 1-A1.
 Leave Link  401 at Sat Aug 17 14:46:01 2024, MaxMem=   13107200 cpu:       0.1
 (Enter /programs/64bit/g09/g09-gfortran/bin/l502.exe)
 Closed shell SCF:
 Requested convergence on RMS density matrix=1.00D-08 within 128 cycles.
 Requested convergence on MAX density matrix=1.00D-06.
 Requested convergence on             energy=1.00D-06.
 No special actions if energy rises.
 Using DIIS extrapolation, IDIIS=  1040.
 Integral symmetry usage will be decided dynamically.
        40530 words used for storage of precomputed grid.
 Keep R1 ints in memory in canonical form, NReq=930280.
 IEnd=       60593 IEndB=       60593 NGot=    13107200 MDV=    13051901
 LenX=    13051901 LenY=    13051019
 Symmetry not used in FoFDir.
 MinBra= 0 MaxBra= 1 Meth= 1.
 IRaf=       0 NMat=   1 IRICut=       1 DoRegI=T DoRafI=F ISym2E= 0 JSym2E=0.

 Cycle   1  Pass 1  IDiag  1:
 E= -40.5106431272367    
 DIIS: error= 4.58D-04 at cycle   1 NSaved=   1.
 NSaved= 1 IEnMin= 1 EnMin= -40.5106431272367     IErMin= 1 ErrMin= 4.58D-04
 ErrMax= 4.58D-04 EMaxC= 1.00D-01 BMatC= 4.44D-06 BMatP= 4.44D-06
 IDIUse=3 WtCom= 9.95D-01 WtEn= 4.58D-03
 Coeff-Com:  0.100D+01
 Coeff-En:   0.100D+01
 Coeff:      0.100D+01
 Gap=     0.507 Goal=   None    Shift=    0.000
 RMSDP=1.96D-04 MaxDP=1.02D-03              OVMax= 1.25D-03

 Cycle   2  Pass 1  IDiag  1:
 E= -40.5106446027857     Delta-E=       -0.000001475549 Rises=F Damp=F
 DIIS: error= 4.69D-04 at cycle   2 NSaved=   2.
 NSaved= 2 IEnMin= 2 EnMin= -40.5106446027857     IErMin= 1 ErrMin= 4.58D-04
 ErrMax= 4.69D-04 EMaxC= 1.00D-01 BMatC= 3.81D-06 BMatP= 4.44D-06
 IDIUse=3 WtCom= 9.95D-01 WtEn= 4.69D-03
 Coeff-Com:  0.478D+00 0.522D+00
 Coeff-En:   0.404D+00 0.596D+00
 Coeff:      0.478D+00 0.522D+00
 Gap=     0.507 Goal=   None    Shift=    0.000
 RMSDP=1.01D-04 MaxDP=5.73D-04 DE=-1.48D-06 OVMax= 6.52D-04

 Cycle   3  Pass 1  IDiag  1:
 E= -40.5106486314058     Delta-E=       -0.000004028620 Rises=F Damp=F
 DIIS: error= 6.15D-05 at cycle   3 NSaved=   3.
 NSaved= 3 IEnMin= 3 EnMin= -40.5106486314058     IErMin= 3 ErrMin= 6.15D-05
 ErrMax= 6.15D-05 EMaxC= 1.00D-01 BMatC= 6.81D-08 BMatP= 3.81D-06
 IDIUse=1 WtCom= 1.00D+00 WtEn= 0.00D+00
 Coeff-Com:  0.162D-01 0.126D+00 0.858D+00
 Coeff:      0.162D-01 0.126D+00 0.858D+00
 Gap=     0.507 Goal=   None    Shift=    0.000
 RMSDP=1.03D-05 MaxDP=6.98D-05 DE=-4.03D-06 OVMax= 6.82D-05

 Cycle   4  Pass 1  IDiag  1:
 E= -40.5106487014517     Delta-E=       -0.000000070046 Rises=F Damp=F
 DIIS: error= 1.12D-06 at cycle   4 NSaved=   4.
 NSaved= 4 IEnMin= 4 EnMin= -40.5106487014517     IErMin= 4 ErrMin= 1.12D-06
 ErrMax= 1.12D-06 EMaxC= 1.00D-01 BMatC= 1.97D-11 BMatP= 6.81D-08
 IDIUse=1 WtCom= 1.00D+00 WtEn= 0.00D+00
 Coeff-Com: -0.168D-02 0.206D-03-0.268D-02 0.100D+01
 Coeff:     -0.168D-02 0.206D-03-0.268D-02 0.100D+01
 Gap=     0.507 Goal=   None    Shift=    0.000
 RMSDP=2.78D-07 MaxDP=1.37D-06 DE=-7.00D-08 OVMax= 1.74D-06

 Cycle   5  Pass 1  IDiag  1:
 E= -40.5106487014777     Delta-E=       -0.000000000026 Rises=F Damp=F
 DIIS: error= 5.50D-08 at cycle   5 NSaved=   5.
 NSaved= 5 IEnMin= 5 EnMin= -40.5106487014777     IErMin= 5 ErrMin= 5.50D-08
 ErrMax= 5.50D-08 EMaxC= 1.00D-01 BMatC= 2.66D-14 BMatP= 1.97D-11
 IDIUse=1 WtCom= 1.00D+00 WtEn= 0.00D+00
 Coeff-Com:  0.107D-03-0.144D-03-0.136D-03-0.679D-01 0.107D+01
 Coeff:      0.107D-03-0.144D-03-0.136D-03-0.679D-01 0.107D+01
 Gap=     0.507 Goal=   None    Shift=    0.000
 RMSDP=8.79D-09 MaxDP=7.21D-08 DE=-2.59D-11 OVMax= 8.32D-08

 SCF Done:  E(RB3LYP) =  -40.5106487015     A.U. after    5 cycles
             Convg  =    0.8785D-08             -V/T =  2.0068
 KE= 4.023820507212D+01 PE=-1.199841540195D+02 EE= 2.583960555096D+01
 Leave Link  502 at Sat Aug 17 14:46:02 2024, MaxMem=   13107200 cpu:       0.6
 (Enter /programs/64bit/g09/g09-gfortran/bin/l701.exe)
 Compute integral first derivatives.
 ... and contract with generalized density number  0.
 Leave Link  701 at Sat Aug 17 14:46:02 2024, MaxMem=   13107200 cpu:       0.1
 (Enter /programs/64bit/g09/g09-gfortran/bin/l702.exe)
 L702 exits ... SP integral derivatives will be done elsewhere.
 Leave Link  702 at Sat Aug 17 14:46:02 2024, MaxMem=   13107200 cpu:       0.0
 (Enter /programs/64bit/g09/g09-gfortran/bin/l703.exe)
 Compute integral first derivatives, UseDBF=F ICtDFT=           0.
 Integral derivatives from FoFDir, PRISM(SPDF).
 Calling FoFJK, ICntrl=      2127 FMM=F ISym2X=1 I1Cent= 0 IOpClX= 0 NMat=1 NMatS=1 NMatT=0.
 FoFCou: FMM=F IPFlag=           0 FMFlag=      100000 FMFlg1=         800
         NFxFlg=           0 DoJE=F BraDBF=F KetDBF=F FulRan=T
         Omega=  0.000000  0.000000  1.000000  0.000000  0.000000 ICntrl=    2127 IOpCl=  0
         NMat0=    1 NMatS0=    1 NMatT0=    0 NMatD0=    1 NMtDS0=    0 NMtDT0=    0
         I1Cent=           0 NGrid=           0.
 Petite list used in FoFCou.
 Leave Link  703 at Sat Aug 17 14:46:02 2024, MaxMem=   13107200 cpu:       0.3
 (Enter /programs/64bit/g09/g09-gfortran/bin/l716.exe)
 Dipole        = 2.22044605D-16-4.44089210D-16 0.00000000D+00
 ***** Axes restored to original set *****
 -------------------------------------------------------------------
 Center     Atomic                   Forces (Hartrees/Bohr)
 Number     Number              X              Y              Z
 -------------------------------------------------------------------
      1        6           0.000000000    0.000000000    0.000000000
      2        1          -0.000000000   -0.000000000   -0.000052186
      3        1          -0.000049202   -0.000000000    0.000017395
      4        1           0.000024601    0.000042610    0.000017395
      5        1           0.000024601   -0.000042610    0.000017395
 -------------------------------------------------------------------
 Cartesian Forces:  Max     0.000052186 RMS     0.000026949
 Leave Link  716 at Sat Aug 17 14:46:02 2024, MaxMem=   13107200 cpu:       0.0
 (Enter /programs/64bit/g09/g09-gfortran/bin/l103.exe)

 GradGradGradGradGradGradGradGradGradGradGradGradGradGradGradGradGradGrad
 Berny optimization.
 Using GEDIIS/GDIIS optimizer.
 Internal  Forces:  Max     0.000052186 RMS     0.000027895
 Search for a local minimum.
 Step number   2 out of a maximum of   24
 All quantities printed in internal units (Hartrees-Bohrs-Radians)
 RMS Force = .27895D-04 SwitMx=.10000D-02 MixMth= 2
 Mixed Optimization -- En-DIIS/RFO-DIIS
 Update second derivatives using D2CorX and points    1    2
 DE= -2.52D-05 DEPred=-2.59D-05 R= 9.72D-01
 SS=  1.41D+00  RLast= 1.22D-02 DXNew= 5.0454D-01 3.6622D-02
 Trust test= 9.72D-01 RLast= 1.22D-02 DXMaxT set to 3.00D-01
 The second derivative matrix:
                          R1        R2        R3        R4        A1
           R1           0.35028
           R2           0.00215   0.35028
           R3           0.00215   0.00215   0.35028
           R4           0.00215   0.00215   0.00215   0.35028
           A1           0.00000   0.00000   0.00000   0.00000   0.16000
           A2          -0.00000  -0.00000  -0.00000  -0.00000  -0.00000
           A3          -0.00000  -0.00000  -0.00000  -0.00000  -0.00000
           A4          -0.00000  -0.00000  -0.00000  -0.00000  -0.00000
           A5           0.00000   0.00000   0.00000   0.00000   0.00000
           A6           0.00000   0.00000   0.00000   0.00000   0.00000
           D1          -0.00000  -0.00000  -0.00000  -0.00000  -0.00000
           D2           0.00000   0.00000   0.00000   0.00000   0.00000
           D3           0.00000   0.00000   0.00000   0.00000   0.00000
           D4           0.00000   0.00000   0.00000   0.00000   0.00000
                          A2        A3        A4        A5        A6
           A2           0.16000
           A3           0.00000   0.16000
           A4           0.00000   0.00000   0.16000
           A5          -0.00000  -0.00000  -0.00000   0.16000
           A6          -0.00000  -0.00000  -0.00000   0.00000   0.16000
           D1           0.00000   0.00000   0.00000  -0.00000  -0.00000
           D2          -0.00000  -0.00000  -0.00000   0.00000   0.00000
           D3          -0.00000  -0.00000  -0.00000   0.00000   0.00000
           D4          -0.00000  -0.00000  -0.00000   0.00000   0.00000
                          D1        D2        D3        D4
           D1           0.00235
           D2          -0.00000   0.00235
           D3          -0.00000   0.00000   0.00235
           D4          -0.00000   0.00000   0.00000   0.00235
 Use linear search instead of GDIIS.
     Eigenvalues ---    0.05086   0.05718   0.08643   0.16000   0.16000
     Eigenvalues ---    0.34813   0.34813   0.34813   0.356731000.00000
     Eigenvalues --- 1000.000001000.000001000.000001000.00000
 RFO step:  Lambda= 0.00000000D+00 EMin= 5.08565158D-02
 Quartic linear search produced a step of -0.02418.
 Iteration  1 RMS(Cart)=  0.00007889 RMS(Int)=  0.00000000
 Iteration  2 RMS(Cart)=  0.00000000 RMS(Int)=  0.00000000
 ClnCor:  largest displacement from symmetrization is 6.41D-15 for atom     3.
 Variable       Old X    -DE/DX   Delta X   Delta X   Delta X     New X
                                 (Linear)    (Quad)   (Total)
    R1        2.06591  -0.00005  -0.00015  -0.00000  -0.00015   2.06576
    R2        2.06591  -0.00005  -0.00015  -0.00000  -0.00015   2.06576
    R3        2.06591  -0.00005  -0.00015   0.00000  -0.00015   2.06576
    R4        2.06591  -0.00005  -0.00015   0.00000  -0.00015   2.06576
    A1        1.91063  -0.00000  -0.00000   0.00000   0.00000   1.91063
    A2        1.91063   0.00000   0.00000   0.00000  -0.00000   1.91063
    A3        1.91063   0.00000   0.00000   0.00000   0.00000   1.91063
    A4        1.91063  -0.00000   0.00000  -0.00000   0.00000   1.91063
    A5        1.91063   0.00000   0.00000   0.00000  -0.00000   1.91063
    A6        1.91063  -0.00000  -0.00000  -0.00000   0.00000   1.91063
    D1       -2.09440   0.00000   0.00000   0.00000  -0.00000  -2.09440
    D2        2.09440   0.00000  -0.00000   0.00000   0.00000   2.09440
    D3       -2.09440  -0.00000  -0.00000  -0.00000   0.00000  -2.09440
    D4        2.09440  -0.00000  -0.00000  -0.00000   0.00000   2.09440
         Item               Value     Threshold  Converged?
 Maximum Force            0.000052     0.000450     YES
 RMS     Force            0.000028     0.000300     YES
 Maximum Displacement     0.000148     0.001800     YES
 RMS     Displacement     0.000079     0.001200     YES
 Predicted change in Energy=-1.526774D-08
 Optimization completed.
    -- Stationary point found.
                           ----------------------------
                           !   Optimized Parameters   !
                           ! (Angstroms and Degrees)  !
 --------------------------                            --------------------------
 ! Name  Definition              Value          Derivative Info.                !
 --------------------------------------------------------------------------------
 ! R1    R(1,2)                  1.0932         -DE/DX =   -0.0001              !
 ! R2    R(1,3)                  1.0932         -DE/DX =   -0.0001              !
 ! R3    R(1,4)                  1.0932         -DE/DX =   -0.0001              !
 ! R4    R(1,5)                  1.0932         -DE/DX =   -0.0001              !
 ! A1    A(2,1,3)              109.4712         -DE/DX =    0.0                 !
 ! A2    A(2,1,4)              109.4712         -DE/DX =    0.0                 !
 ! A3    A(2,1,5)              109.4712         -DE/DX =    0.0                 !
 ! A4    A(3,1,4)              109.4712         -DE/DX =    0.0                 !
 ! A5    A(3,1,5)              109.4712         -DE/DX =    0.0                 !
 ! A6    A(4,1,5)              109.4712         -DE/DX =    0.0                 !
 ! D1    D(2,1,4,3)           -120.0            -DE/DX =    0.0                 !
 ! D2    D(2,1,5,3)            120.0            -DE/DX =    0.0                 !
 ! D3    D(2,1,5,4)           -120.0            -DE/DX =    0.0                 !
 ! D4    D(3,1,5,4)            120.0            -DE/DX =    0.0                 !
 --------------------------------------------------------------------------------
 GradGradGradGradGradGradGradGradGradGradGradGradGradGradGradGradGradGrad

 Largest change from initial coordinates is atom    3       0.003 Angstoms.
 Leave Link  103 at Sat Aug 17 14:46:02 2024, MaxMem=   13107200 cpu:       0.0
 (Enter /programs/64bit/g09/g09-gfortran/bin/l202.exe)
                          Input orientation:                          
 ---------------------------------------------------------------------
 Center     Atomic      Atomic             Coordinates (Angstroms)
 Number     Number       Type             X           Y           Z
 ---------------------------------------------------------------------
      1          6           0        0.000000    0.000000   -0.000000
      2          1           0       -0.000000    0.000000    1.093230
      3          1           0        1.030707   -0.000000   -0.364410
      4          1           0       -0.515354   -0.892618   -0.364410
      5          1           0       -0.515354    0.892618   -0.364410
 ---------------------------------------------------------------------
                    Distance matrix (angstroms):
                    1          2          3          4          5
     1  C    0.000000
     2  H    1.093230   0.000000
     3  H    1.093230   1.785237   0.000000
     4  H    1.093230   1.785237   1.785237   0.000000
     5  H    1.093230   1.785237   1.785237   1.785237   0.000000
 Stoichiometry    CH4
 Framework group  TD[O(C),4C3(H)]
 Deg. of freedom     1
 Prev. full point group           TD      NOp  24
 Prev. largest Abelian subgroup   D2      NOp   4
       concise Abelian subgroup   D2      NOp   4
                   Standard orientation:
 ---------------------------------------------------------------------
 Center     Atomic                     Coordinates (Angstroms)
 Number     Number                        X           Y           Z
 ---------------------------------------------------------------------
      1          6                    0.000000    0.000000    0.000000
      2          1                    0.296359    0.938966    0.475044
      3          1                   -0.687752   -0.539418    0.656640
      4          1                   -0.495719    0.213196   -0.950769
      5          1                    0.887112   -0.612743   -0.180915
 ---------------------------------------------------------------------
 TstSym:  Max error for IOp=  4 IAt=    5 Err= 1.45D+00
 TstSym:  IOp= 25 I=    6 IP=    4 Err= 1.45D+00
  CI=  0.000000000000D+00  0.000000000000D+00  0.000000000000D+00
   T= -1.676398180116D+00  1.157916877315D+00 -3.418796895976D-01
 CIP= -9.367725554299D-01  4.028820128162D-01 -1.796693445852D+00
 Unable to use previous symmetry information.  Redetermining point group.
 No symmetry information on checkpoint file.  Reassigning symmetry.
 Symm:  InNGrp=TD   InAxis=0.
 Stoichiometry    CH4
 Framework group  TD[O(C),4C3(H)]
 Deg. of freedom     1
 Full point group                 TD      NOp  24
 Largest Abelian subgroup         D2      NOp   4
 Largest concise Abelian subgroup D2      NOp   4
                         Standard orientation:                         
 ---------------------------------------------------------------------
 Center     Atomic      Atomic             Coordinates (Angstroms)
 Number     Number       Type             X           Y           Z
 ---------------------------------------------------------------------
      1          6           0        0.000000    0.000000    0.000000
      2          1           0        0.631177    0.631177    0.631177
      3          1           0       -0.631177   -0.631177    0.631177
      4          1           0       -0.631177    0.631177   -0.631177
      5          1           0        0.631177   -0.631177   -0.631177
 ---------------------------------------------------------------------
 Rotational constants (GHZ):    157.3404193    157.3404193    157.3404193
 Leave Link  202 at Sat Aug 17 14:46:02 2024, MaxMem=   13107200 cpu:       0.0
 (Enter /programs/64bit/g09/g09-gfortran/bin/l601.exe)
 Copying SCF densities to generalized density rwf, IOpCl= 0 IROHF=0.

 **********************************************************************

            Population analysis using the SCF density.

 **********************************************************************

 Orbital symmetries:
       Occupied  (A1) (A1) (T2) (T2) (T2)
       Virtual   (A1) (T2) (T2) (T2) (T2) (T2) (T2) (T2) (T2) (T2)
                 (A1) (A1)
 The electronic state is 1-A1.
 Alpha  occ. eigenvalues --  -10.16004  -0.69285  -0.38987  -0.38987  -0.38987
 Alpha virt. eigenvalues --    0.11727   0.17560   0.17560   0.17560   0.54443
 Alpha virt. eigenvalues --    0.54443   0.54443   0.93861   0.93861   0.93861
 Alpha virt. eigenvalues --    0.94464   1.11020
     Molecular Orbital Coefficients:
                           1         2         3         4         5
                        (A1)--O   (A1)--O   (T2)--O   (T2)--O   (T2)--O
     Eigenvalues --   -10.16004  -0.69285  -0.38987  -0.38987  -0.38987
   1 1   C  1S          0.99520  -0.19912   0.00000   0.00000   0.00000
   2        2S          0.03636   0.38317   0.00000   0.00000   0.00000
   3        2PX         0.00000   0.00000   0.44722   0.00000   0.00000
   4        2PY         0.00000   0.00000   0.00000   0.00000   0.44722
   5        2PZ         0.00000   0.00000   0.00000   0.44722   0.00000
   6        3S         -0.02919   0.36531   0.00000   0.00000   0.00000
   7        3PX         0.00000   0.00000   0.20751   0.00000   0.00000
   8        3PY         0.00000   0.00000   0.00000   0.00000   0.20751
   9        3PZ         0.00000   0.00000   0.00000   0.20751   0.00000
  10 2   H  1S         -0.00074   0.13490   0.17372   0.17372   0.17372
  11        2S          0.00556   0.03741   0.14545   0.14545   0.14545
  12 3   H  1S         -0.00074   0.13490  -0.17372   0.17372  -0.17372
  13        2S          0.00556   0.03741  -0.14545   0.14545  -0.14545
  14 4   H  1S         -0.00074   0.13490  -0.17372  -0.17372   0.17372
  15        2S          0.00556   0.03741  -0.14545  -0.14545   0.14545
  16 5   H  1S         -0.00074   0.13490   0.17372  -0.17372  -0.17372
  17        2S          0.00556   0.03741   0.14545  -0.14545  -0.14545
                           6         7         8         9        10
                        (A1)--V   (T2)--V   (T2)--V   (T2)--V   (T2)--V
     Eigenvalues --     0.11727   0.17560   0.17560   0.17560   0.54443
   1 1   C  1S         -0.15954   0.00000   0.00000   0.00000   0.00000
   2        2S          0.18175   0.00000   0.00000   0.00000   0.00000
   3        2PX         0.00000   0.00000   0.00000   0.38661  -0.80448
   4        2PY         0.00000   0.38661   0.00000   0.00000   0.00000
   5        2PZ         0.00000   0.00000   0.38661   0.00000   0.00000
   6        3S          2.57822   0.00000   0.00000   0.00000   0.00000
   7        3PX         0.00000   0.00000   0.00000   1.35993   1.56982
   8        3PY         0.00000   1.35993   0.00000   0.00000   0.00000
   9        3PZ         0.00000   0.00000   1.35993   0.00000   0.00000
  10 2   H  1S         -0.02078  -0.07585  -0.07585  -0.07585  -0.28753
  11        2S         -0.98523  -1.08449  -1.08449  -1.08449  -0.19922
  12 3   H  1S         -0.02078   0.07585  -0.07585   0.07585   0.28753
  13        2S         -0.98523   1.08449  -1.08449   1.08449   0.19922
  14 4   H  1S         -0.02078  -0.07585   0.07585   0.07585   0.28753
  15        2S         -0.98523  -1.08449   1.08449   1.08449   0.19922
  16 5   H  1S         -0.02078   0.07585   0.07585  -0.07585  -0.28753
  17        2S         -0.98523   1.08449   1.08449  -1.08449  -0.19922
                          11        12        13        14        15
                        (T2)--V   (T2)--V   (T2)--V   (T2)--V   (T2)--V
     Eigenvalues --     0.54443   0.54443   0.93861   0.93861   0.93861
   1 1   C  1S          0.00000   0.00000   0.00000   0.00000   0.00000
   2        2S          0.00000   0.00000   0.00000   0.00000   0.00000
   3        2PX         0.00000   0.00000   0.00000   0.00000  -0.82230
   4        2PY        -0.80448   0.00000  -0.82230   0.00000   0.00000
   5        2PZ         0.00000  -0.80448   0.00000  -0.82230   0.00000
   6        3S          0.00000   0.00000   0.00000   0.00000   0.00000
   7        3PX         0.00000   0.00000   0.00000   0.00000   1.04294
   8        3PY         1.56982   0.00000   1.04294   0.00000   0.00000
   9        3PZ         0.00000   1.56982   0.00000   1.04294   0.00000
  10 2   H  1S         -0.28753  -0.28753   0.60647   0.60647   0.60647
  11        2S         -0.19922  -0.19922  -0.96656  -0.96656  -0.96656
  12 3   H  1S          0.28753  -0.28753  -0.60647   0.60647  -0.60647
  13        2S          0.19922  -0.19922   0.96656  -0.96656   0.96656
  14 4   H  1S         -0.28753   0.28753   0.60647  -0.60647  -0.60647
  15        2S         -0.19922   0.19922  -0.96656   0.96656   0.96656
  16 5   H  1S          0.28753   0.28753  -0.60647  -0.60647   0.60647
  17        2S          0.19922   0.19922   0.96656   0.96656  -0.96656
                          16        17
                        (A1)--V   (A1)--V
     Eigenvalues --     0.94464   1.11020
   1 1   C  1S          0.10668  -0.06848
   2        2S         -0.80597  -2.24449
   3        2PX         0.00000   0.00000
   4        2PY         0.00000   0.00000
   5        2PZ         0.00000   0.00000
   6        3S          1.00655   5.31007
   7        3PX         0.00000   0.00000
   8        3PY         0.00000   0.00000
   9        3PZ         0.00000   0.00000
  10 2   H  1S          0.65383  -0.28884
  11        2S         -0.52131  -1.01112
  12 3   H  1S          0.65383  -0.28884
  13        2S         -0.52131  -1.01112
  14 4   H  1S          0.65383  -0.28884
  15        2S         -0.52131  -1.01112
  16 5   H  1S          0.65383  -0.28884
  17        2S         -0.52131  -1.01112
     Density Matrix:
                           1         2         3         4         5
   1 1   C  1S          2.06015
   2        2S         -0.08023   0.29629
   3        2PX         0.00000   0.00000   0.40001
   4        2PY         0.00000   0.00000   0.00000   0.40001
   5        2PZ         0.00000   0.00000  -0.00000  -0.00000   0.40001
   6        3S         -0.20357   0.27783   0.00000   0.00000   0.00000
   7        3PX         0.00000   0.00000   0.18561   0.00000  -0.00000
   8        3PY         0.00000   0.00000   0.00000   0.18561  -0.00000
   9        3PZ         0.00000   0.00000  -0.00000  -0.00000   0.18561
  10 2   H  1S         -0.05520   0.10332   0.15539   0.15539   0.15539
  11        2S         -0.00383   0.02908   0.13010   0.13010   0.13010
  12 3   H  1S         -0.05520   0.10332  -0.15539  -0.15539   0.15539
  13        2S         -0.00383   0.02908  -0.13010  -0.13010   0.13010
  14 4   H  1S         -0.05520   0.10332  -0.15539   0.15539  -0.15539
  15        2S         -0.00383   0.02908  -0.13010   0.13010  -0.13010
  16 5   H  1S         -0.05520   0.10332   0.15539  -0.15539  -0.15539
  17        2S         -0.00383   0.02908   0.13010  -0.13010  -0.13010
                           6         7         8         9        10
   6        3S          0.26861
   7        3PX         0.00000   0.08612
   8        3PY         0.00000   0.00000   0.08612
   9        3PZ         0.00000  -0.00000  -0.00000   0.08612
  10 2   H  1S          0.09860   0.07210   0.07210   0.07210   0.21748
  11        2S          0.02701   0.06036   0.06036   0.06036   0.16170
  12 3   H  1S          0.09860  -0.07210  -0.07210   0.07210  -0.02396
  13        2S          0.02701  -0.06036  -0.06036   0.06036  -0.04045
  14 4   H  1S          0.09860  -0.07210   0.07210  -0.07210  -0.02396
  15        2S          0.02701  -0.06036   0.06036  -0.06036  -0.04045
  16 5   H  1S          0.09860   0.07210  -0.07210  -0.07210  -0.02396
  17        2S          0.02701   0.06036  -0.06036  -0.06036  -0.04045
                          11        12        13        14        15
  11        2S          0.12980
  12 3   H  1S         -0.04045   0.21748
  13        2S         -0.03945   0.16170   0.12980
  14 4   H  1S         -0.04045  -0.02396  -0.04045   0.21748
  15        2S         -0.03945  -0.04045  -0.03945   0.16170   0.12980
  16 5   H  1S         -0.04045  -0.02396  -0.04045  -0.02396  -0.04045
  17        2S         -0.03945  -0.04045  -0.03945  -0.04045  -0.03945
                          16        17
  16 5   H  1S          0.21748
  17        2S          0.16170   0.12980
    Full Mulliken population analysis:
                           1         2         3         4         5
   1 1   C  1S          2.06015
   2        2S         -0.01757   0.29629
   3        2PX         0.00000   0.00000   0.40001
   4        2PY         0.00000   0.00000   0.00000   0.40001
   5        2PZ         0.00000   0.00000   0.00000   0.00000   0.40001
   6        3S         -0.03751   0.22568   0.00000   0.00000   0.00000
   7        3PX         0.00000   0.00000   0.10575   0.00000   0.00000
   8        3PY         0.00000   0.00000   0.00000   0.10575   0.00000
   9        3PZ         0.00000   0.00000   0.00000   0.00000   0.10575
  10 2   H  1S         -0.00178   0.02807   0.03295   0.03295   0.03295
  11        2S         -0.00035   0.01380   0.01996   0.01996   0.01996
  12 3   H  1S         -0.00178   0.02807   0.03295   0.03295   0.03295
  13        2S         -0.00035   0.01380   0.01996   0.01996   0.01996
  14 4   H  1S         -0.00178   0.02807   0.03295   0.03295   0.03295
  15        2S         -0.00035   0.01380   0.01996   0.01996   0.01996
  16 5   H  1S         -0.00178   0.02807   0.03295   0.03295   0.03295
  17        2S         -0.00035   0.01380   0.01996   0.01996   0.01996
                           6         7         8         9        10
   6        3S          0.26861
   7        3PX         0.00000   0.08612
   8        3PY         0.00000   0.00000   0.08612
   9        3PZ         0.00000   0.00000   0.00000   0.08612
  10 2   H  1S          0.03705   0.02143   0.02143   0.02143   0.21748
  11        2S          0.01899   0.02032   0.02032   0.02032   0.10644
  12 3   H  1S          0.03705   0.02143   0.02143   0.02143  -0.00043
  13        2S          0.01899   0.02032   0.02032   0.02032  -0.00598
  14 4   H  1S          0.03705   0.02143   0.02143   0.02143  -0.00043
  15        2S          0.01899   0.02032   0.02032   0.02032  -0.00598
  16 5   H  1S          0.03705   0.02143   0.02143   0.02143  -0.00043
  17        2S          0.01899   0.02032   0.02032   0.02032  -0.00598
                          11        12        13        14        15
  11        2S          0.12980
  12 3   H  1S         -0.00598   0.21748
  13        2S         -0.01576   0.10644   0.12980
  14 4   H  1S         -0.00598  -0.00043  -0.00598   0.21748
  15        2S         -0.01576  -0.00598  -0.01576   0.10644   0.12980
  16 5   H  1S         -0.00598  -0.00043  -0.00598  -0.00043  -0.00598
  17        2S         -0.01576  -0.00598  -0.01576  -0.00598  -0.01576
                          16        17
  16 5   H  1S          0.21748
  17        2S          0.10644   0.12980
     Gross orbital populations:
                           1
   1 1   C  1S          1.99653
   2        2S          0.67187
   3        2PX         0.71739
   4        2PY         0.71739
   5        2PZ         0.71739
   6        3S          0.68094
   7        3PX         0.35888
   8        3PY         0.35888
   9        3PZ         0.35888
  10 2   H  1S          0.53115
  11        2S          0.32431
  12 3   H  1S          0.53115
  13        2S          0.32431
  14 4   H  1S          0.53115
  15        2S          0.32431
  16 5   H  1S          0.53115
  17        2S          0.32431
          Condensed to atoms (all electrons):
              1          2          3          4          5
     1  C    5.059131   0.379756   0.379756   0.379756   0.379756
     2  H    0.379756   0.560157  -0.028151  -0.028151  -0.028151
     3  H    0.379756  -0.028151   0.560157  -0.028151  -0.028151
     4  H    0.379756  -0.028151  -0.028151   0.560157  -0.028151
     5  H    0.379756  -0.028151  -0.028151  -0.028151   0.560157
 Mulliken atomic charges:
              1
     1  C   -0.578157
     2  H    0.144539
     3  H    0.144539
     4  H    0.144539
     5  H    0.144539
 Sum of Mulliken atomic charges =   0.00000
 Mulliken charges with hydrogens summed into heavy atoms:
              1
     1  C    0.000000
 Sum of Mulliken charges with hydrogens summed into heavy atoms =   0.00000
 Electronic spatial extent (au):  <R**2>=             35.5445
 Charge=             -0.0000 electrons
 Dipole moment (field-independent basis, Debye):
    X=             -0.0000    Y=              0.0000    Z=             -0.0000  Tot=              0.0000
 Quadrupole moment (field-independent basis, Debye-Ang):
   XX=             -8.2821   YY=             -8.2821   ZZ=             -8.2821
   XY=             -0.0000   XZ=              0.0000   YZ=              0.0000
 Traceless Quadrupole moment (field-independent basis, Debye-Ang):
   XX=              0.0000   YY=             -0.0000   ZZ=              0.0000
   XY=             -0.0000   XZ=              0.0000   YZ=              0.0000
 Octapole moment (field-independent basis, Debye-Ang**2):
  XXX=             -0.0000  YYY=              0.0000  ZZZ=             -0.0000  XYY=              0.0000
  XXY=              0.0000  XXZ=             -0.0000  XZZ=             -0.0000  YZZ=              0.0000
  YYZ=             -0.0000  XYZ=              0.6383
 Hexadecapole moment (field-independent basis, Debye-Ang**3):
 XXXX=            -15.7783 YYYY=            -15.7783 ZZZZ=            -15.7783 XXXY=             -0.0000
[...]

 -------------------
 - Thermochemistry -
 -------------------
 Temperature   298.150 Kelvin.  Pressure   1.00000 Atm.
 Atom     1 has atomic number  6 and mass  12.00000
 Atom     2 has atomic number  1 and mass   1.00783
 Atom     3 has atomic number  1 and mass   1.00783
 Atom     4 has atomic number  1 and mass   1.00783
 Atom     5 has atomic number  1 and mass   1.00783
 Molecular mass:    16.03130 amu.
 Principal axes and moments of inertia in atomic units:
                           1         2         3
     Eigenvalues --    11.47030  11.47030  11.47030
           X            0.91875   0.24045  -0.31319
           Y           -0.30748   0.93331  -0.18545
           Z            0.24771   0.26668   0.93141
 This molecule is a spherical top.
 Rotational symmetry number 12.
 Rotational temperatures (Kelvin)      7.55114     7.55114     7.55114
 Rotational constants (GHZ):         157.34042   157.34042   157.34042
 Zero-point vibrational energy     119418.5 (Joules/Mol)
                                   28.54170 (Kcal/Mol)
 Vibrational temperatures:   2020.39  2020.39  2020.39  2305.50  2305.50
          (Kelvin)           4380.54  4557.58  4557.58  4557.58
 
 Zero-point correction=                           0.045484 (Hartree/Particle)
 Thermal correction to Energy=                    0.048345
 Thermal correction to Enthalpy=                  0.049289
 Thermal correction to Gibbs Free Energy=         0.028162
 Sum of electronic and zero-point Energies=            -40.465165
 Sum of electronic and thermal Energies=               -40.462304
 Sum of electronic and thermal Enthalpies=             -40.461360
 Sum of electronic and thermal Free Energies=          -40.482487
 
                     E (Thermal)             CV                S
                      KCal/Mol        Cal/Mol-Kelvin    Cal/Mol-Kelvin
 Total                   30.337              6.379             44.467
 Electronic               0.000              0.000              0.000
 Translational            0.889              2.981             34.261
 Rotational               0.889              2.981             10.137
 Vibrational             28.559              0.418              0.068
                       Q            Log10(Q)             Ln(Q)
 Total Bot       0.111331D-12        -12.953383        -29.826267
 Total V=0       0.928546D+08          7.967803         18.346545
 Vib (Bot)       0.120415D-20        -20.919319        -48.168511
 Vib (V=0)       0.100431D+01          0.001868          0.004301
 Electronic      0.100000D+01          0.000000          0.000000
 Translational   0.252295D+07          6.401908         14.740939
 Rotational      0.366460D+02          1.564027          3.601306
 
                                     methane with imposed symmetry Td and hf/6-31
 G basis function
                                                             IR Spectrum
 
      3   3                                                         1       1                                                        
      1   0                                                         6       4                                                        
      6   4                                                         0       0                                                        
      8   5                                                         2       4                                                        
 
      X                                                                     X                                                        
      X                                                                     X                                                        
      X                                                                     X                                                        
      X                                                                     X                                                        
      X                                                                     X                                                        
      X                                                                     X                                                        
      X                                                                     X                                                        
      X                                                                     X                                                        
      X                                                                     X                                                        
      X                                                                     X                                                        
      X                                                                     X                                                        
      X                                                                     X                                                        
      X                                                                     X                                                        
      X                                                                     X                                                        
      X                                                                     X                                                        
      X                                                                     X                                                        
      X                                                                                                                              
      X                                                                                                                              
      X                                                                                                                              
      X                                                                                                                              
 
 ***** Axes restored to original set *****
 -------------------------------------------------------------------
 Center     Atomic                   Forces (Hartrees/Bohr)
 Number     Number              X              Y              Z
 -------------------------------------------------------------------
      1        6           0.000000000   -0.000000000    0.000000000
      2        1           0.000000000   -0.000000000   -0.000052186
      3        1          -0.000049202    0.000000000    0.000017395
      4        1           0.000024601    0.000042610    0.000017395
      5        1           0.000024601   -0.000042610    0.000017395
 -------------------------------------------------------------------
 Cartesian Forces:  Max     0.000052186 RMS     0.000026949
 Force constants in Cartesian coordinates: 
                1             2             3             4             5 
      1  0.555848D+00
      2  0.000000D+00  0.555848D+00
      3  0.000000D+00  0.000000D+00  0.555848D+00
      4 -0.487125D-01  0.000000D+00  0.000000D+00  0.482018D-01
      5  0.000000D+00 -0.487125D-01  0.000000D+00  0.000000D+00  0.482018D-01
      6  0.000000D+00  0.000000D+00 -0.319461D+00  0.000000D+00  0.000000D+00
      7 -0.289378D+00  0.000000D+00  0.850881D-01  0.119808D-02  0.000000D+00
      8  0.000000D+00 -0.487125D-01  0.000000D+00  0.000000D+00 -0.857636D-03
      9  0.850881D-01  0.000000D+00 -0.787957D-01  0.338307D-01  0.000000D+00
     10 -0.108879D+00 -0.104211D+00 -0.425440D-01 -0.343708D-03  0.890150D-03
     11 -0.104211D+00 -0.229212D+00 -0.736884D-01  0.890150D-03  0.684148D-03
     12 -0.425440D-01 -0.736884D-01 -0.787957D-01 -0.169154D-01 -0.292983D-01
     13 -0.108879D+00  0.104211D+00 -0.425440D-01 -0.343708D-03 -0.890149D-03
     14  0.104211D+00 -0.229212D+00  0.736884D-01 -0.890149D-03  0.684148D-03
     15 -0.425440D-01  0.736884D-01 -0.787957D-01 -0.169154D-01  0.292983D-01
                6             7             8             9            10 
      6  0.349508D+00
      7 -0.211330D-02  0.316030D+00
      8  0.000000D+00  0.000000D+00  0.482018D-01
      9 -0.100157D-01 -0.946915D-01  0.000000D+00  0.816803D-01
     10  0.105665D-02 -0.139250D-01 -0.273260D-01 -0.121137D-01  0.115159D+00
     11  0.183017D-02  0.202222D-02  0.684148D-03  0.229184D-03  0.115973D+00
     12 -0.100157D-01  0.585835D-02  0.106053D-01  0.356554D-02  0.473457D-01
     13  0.105665D-02 -0.139250D-01  0.273260D-01 -0.121137D-01  0.798871D-02
     14 -0.183017D-02 -0.202222D-02  0.684148D-03 -0.229184D-03  0.146741D-01
     15 -0.100157D-01  0.585835D-02 -0.106053D-01  0.356554D-02  0.625531D-02
               11            12            13            14            15 
     11  0.249073D+00
     12  0.820052D-01  0.816803D-01
     13 -0.146741D-01  0.625531D-02  0.115159D+00
     14 -0.212295D-01  0.103761D-01 -0.115973D+00  0.249073D+00
     15 -0.103761D-01  0.356554D-02  0.473457D-01 -0.820052D-01  0.816803D-01
 Force constants in internal coordinates: 
                1             2             3             4             5 
      1  0.349508D+00
      2  0.134614D-02  0.349508D+00
      3  0.134614D-02  0.134614D-02  0.349508D+00
      4  0.134614D-02  0.134614D-02  0.134614D-02  0.349508D+00
      5  0.231136D-02  0.231136D-02 -0.145132D-02 -0.317140D-02  0.207877D-01
      6  0.362245D-02 -0.934826D-03  0.403144D-02 -0.671906D-02 -0.903388D-02
      7  0.707897D-02 -0.568140D-02 -0.628904D-02  0.489148D-02 -0.137052D-01
      8 -0.934826D-03  0.362245D-02  0.403144D-02 -0.671906D-02 -0.903388D-02
      9 -0.568140D-02  0.707897D-02 -0.628904D-02  0.489148D-02 -0.137052D-01
     10 -0.639655D-02 -0.639655D-02  0.596653D-02  0.682657D-02  0.246904D-01
     11 -0.447665D-02 -0.447665D-02 -0.315999D-02  0.121133D-01 -0.143954D-01
     12  0.368665D-02  0.368665D-02 -0.947996D-02  0.210666D-02  0.867428D-02
     13 -0.485447D-02  0.854113D-02 -0.473998D-02  0.105333D-02  0.433714D-02
     14 -0.854113D-02  0.485447D-02  0.473998D-02 -0.105333D-02 -0.433714D-02
                6             7             8             9            10 
      6  0.393844D-01
      7 -0.238233D-01  0.769344D-01
      8 -0.184127D-02  0.254660D-01  0.393844D-01
      9  0.254660D-01 -0.369822D-01 -0.238233D-01  0.769344D-01
     10 -0.301519D-01 -0.278896D-01 -0.301519D-01 -0.278896D-01  0.913926D-01
     11 -0.119262D-01  0.157794D-01 -0.119262D-01  0.157794D-01  0.668895D-02
     12 -0.100583D-01  0.768023D-02 -0.100583D-01  0.768023D-02 -0.391816D-02
     13 -0.151829D-01 -0.856179D-03  0.512464D-02  0.853641D-02 -0.195908D-02
     14 -0.512464D-02 -0.853641D-02  0.151829D-01  0.856179D-03  0.195908D-02
               11            12            13            14 
     11  0.322373D-01
     12  0.169506D-02  0.200301D-01
     13  0.847528D-03  0.100151D-01  0.203192D-01
     14 -0.847528D-03 -0.100151D-01  0.103041D-01  0.203192D-01
 Leave Link  716 at Sat Aug 17 14:46:08 2024, MaxMem=   13107200 cpu:       0.0
 (Enter /programs/64bit/g09/g09-gfortran/bin/l103.exe)

 GradGradGradGradGradGradGradGradGradGradGradGradGradGradGradGradGradGrad
 Berny optimization.
 Internal  Forces:  Max     0.000052186 RMS     0.000027895
 Search for a local minimum.
 Step number   1 out of a maximum of    2
 All quantities printed in internal units (Hartrees-Bohrs-Radians)
 Second derivative matrix not updated -- analytic derivatives used.
 The second derivative matrix:
                          R1        R2        R3        R4        A1
           R1           0.34951
           R2           0.00135   0.34951
           R3           0.00135   0.00135   0.34951
           R4           0.00135   0.00135   0.00135   0.34951
           A1           0.00231   0.00231  -0.00145  -0.00317   0.02079
           A2           0.00362  -0.00093   0.00403  -0.00672  -0.00903
           A3           0.00708  -0.00568  -0.00629   0.00489  -0.01371
           A4          -0.00093   0.00362   0.00403  -0.00672  -0.00903
           A5          -0.00568   0.00708  -0.00629   0.00489  -0.01371
           A6          -0.00640  -0.00640   0.00597   0.00683   0.02469
           D1          -0.00448  -0.00448  -0.00316   0.01211  -0.01440
           D2           0.00369   0.00369  -0.00948   0.00211   0.00867
           D3          -0.00485   0.00854  -0.00474   0.00105   0.00434
           D4          -0.00854   0.00485   0.00474  -0.00105  -0.00434
                          A2        A3        A4        A5        A6
           A2           0.03938
           A3          -0.02382   0.07693
           A4          -0.00184   0.02547   0.03938
           A5           0.02547  -0.03698  -0.02382   0.07693
           A6          -0.03015  -0.02789  -0.03015  -0.02789   0.09139
           D1          -0.01193   0.01578  -0.01193   0.01578   0.00669
           D2          -0.01006   0.00768  -0.01006   0.00768  -0.00392
           D3          -0.01518  -0.00086   0.00512   0.00854  -0.00196
           D4          -0.00512  -0.00854   0.01518   0.00086   0.00196
                          D1        D2        D3        D4
           D1           0.03224
           D2           0.00170   0.02003
           D3           0.00085   0.01002   0.02032
           D4          -0.00085  -0.01002   0.01030   0.02032
     Eigenvalues ---    0.04081   0.04603   0.07008   0.13804   0.13842
     Eigenvalues ---    0.34947   0.34948   0.34988   0.353551000.00000
     Eigenvalues --- 1000.000001000.000001000.000001000.00000
 Angle between quadratic step and forces=   0.00 degrees.
 Linear search not attempted -- first point.
 Iteration  1 RMS(Cart)=  0.00007890 RMS(Int)=  0.00000000
 Iteration  2 RMS(Cart)=  0.00000000 RMS(Int)=  0.00000000
 ClnCor:  largest displacement from symmetrization is 9.63D-13 for atom     4.
 Variable       Old X    -DE/DX   Delta X   Delta X   Delta X     New X
                                 (Linear)    (Quad)   (Total)
    R1        2.06591  -0.00005   0.00000  -0.00015  -0.00015   2.06576
    R2        2.06591  -0.00005   0.00000  -0.00015  -0.00015   2.06576
    R3        2.06591  -0.00005   0.00000  -0.00015  -0.00015   2.06576
    R4        2.06591  -0.00005   0.00000  -0.00015  -0.00015   2.06576
    A1        1.91063  -0.00000   0.00000  -0.00000   0.00000   1.91063
    A2        1.91063   0.00000   0.00000  -0.00000  -0.00000   1.91063
    A3        1.91063   0.00000   0.00000   0.00000   0.00000   1.91063
    A4        1.91063   0.00000   0.00000   0.00000   0.00000   1.91063
    A5        1.91063   0.00000   0.00000  -0.00000  -0.00000   1.91063
    A6        1.91063  -0.00000   0.00000  -0.00000   0.00000   1.91063
    D1       -2.09440  -0.00000   0.00000   0.00000   0.00000  -2.09440
    D2        2.09440  -0.00000   0.00000  -0.00000   0.00000   2.09440
    D3       -2.09440   0.00000   0.00000   0.00000   0.00000  -2.09440
    D4        2.09440   0.00000   0.00000   0.00000   0.00000   2.09440
         Item               Value     Threshold  Converged?
 Maximum Force            0.000052     0.000450     YES
 RMS     Force            0.000028     0.000300     YES
 Maximum Displacement     0.000148     0.001800     YES
 RMS     Displacement     0.000079     0.001200     YES
 Predicted change in Energy=-1.540612D-08
 Optimization completed.
    -- Stationary point found.
                           ----------------------------
                           !   Optimized Parameters   !
                           ! (Angstroms and Degrees)  !
 --------------------------                            --------------------------
 ! Name  Definition              Value          Derivative Info.                !
 --------------------------------------------------------------------------------
 ! R1    R(1,2)                  1.0932         -DE/DX =   -0.0001              !
 ! R2    R(1,3)                  1.0932         -DE/DX =   -0.0001              !
 ! R3    R(1,4)                  1.0932         -DE/DX =   -0.0001              !
 ! R4    R(1,5)                  1.0932         -DE/DX =   -0.0001              !
 ! A1    A(2,1,3)              109.4712         -DE/DX =    0.0                 !
 ! A2    A(2,1,4)              109.4712         -DE/DX =    0.0                 !
 ! A3    A(2,1,5)              109.4712         -DE/DX =    0.0                 !
 ! A4    A(3,1,4)              109.4712         -DE/DX =    0.0                 !
 ! A5    A(3,1,5)              109.4712         -DE/DX =    0.0                 !
 ! A6    A(4,1,5)              109.4712         -DE/DX =    0.0                 !
 ! D1    D(2,1,4,3)           -120.0            -DE/DX =    0.0                 !
 ! D2    D(2,1,5,3)            120.0            -DE/DX =    0.0                 !
 ! D3    D(2,1,5,4)           -120.0            -DE/DX =    0.0                 !
 ! D4    D(3,1,5,4)            120.0            -DE/DX =    0.0                 !
 --------------------------------------------------------------------------------
 GradGradGradGradGradGradGradGradGradGradGradGradGradGradGradGradGradGrad

 Leave Link  103 at Sat Aug 17 14:46:08 2024, MaxMem=   13107200 cpu:       0.0
 (Enter /programs/64bit/g09/g09-gfortran/bin/l9999.exe)
 1\1\GINC-MOLMOD\Freq\RB3LYP\6-31G\C1H4\OSPITE\17-Aug-2024\0\\#P Geom=A
 llCheck Guess=TCheck SCRF=Check GenChk RB3LYP/6-31G Freq\\methane with
  imposed symmetry Td and hf/6-31G basis function\\0,1\C,0.,0.,0.\H,0.,
 0.,1.0932299188\H,1.0307070519,0.,-0.3644099729\H,-0.515353526,-0.8926
 184908,-0.3644099729\H,-0.515353526,0.8926184908,-0.3644099729\\Versio
 n=EM64L-G09RevA.02\State=1-A1\HF=-40.5106487\RMSD=3.631e-10\RMSF=2.695
 e-05\ZeroPoint=0.0454841\Thermal=0.048345\Dipole=0.,0.,0.\DipoleDeriv=
 -0.037529,0.,0.,0.,-0.037529,0.,0.,0.,-0.037529,0.0941487,0.,0.,0.,0.0
 941487,0.,0.,0.,-0.1601506,-0.1318951,0.,0.0799186,0.,0.0941487,0.,0.0
 799186,0.,0.0658932,0.0376377,-0.0978798,-0.0399593,-0.0978798,-0.0753
 842,-0.0692115,-0.0399593,-0.0692115,0.0658932,0.0376377,0.0978798,-0.
 0399593,0.0978798,-0.0753842,0.0692115,-0.0399593,0.0692115,0.0658932\
 Polar=12.1234864,0.,12.1234864,0.,0.,12.1234864\PG=TD [O(C1),4C3(H1)]\
 NImag=0\\0.55584800,0.,0.55584800,0.,0.,0.55584800,-0.04871248,0.,0.,0
 .04820182,0.,-0.04871248,0.,0.,0.04820182,0.,0.,-0.31946103,0.,0.,0.34
 950822,-0.28937786,0.,0.08508806,0.00119808,0.,-0.00211330,0.31602973,
 0.,-0.04871248,0.,0.,-0.00085764,0.,0.,0.04820182,0.08508806,0.,-0.078
 79565,0.03383073,0.,-0.01001573,-0.09469147,0.,0.08168031,-0.10887883,
 -0.10421117,-0.04254403,-0.00034371,0.00089015,0.00105665,-0.01392498,
 -0.02732596,-0.01211366,0.11515880,-0.10421117,-0.22921152,-0.07368842
 ,0.00089015,0.00068415,0.00183017,0.00202222,0.00068415,0.00022918,0.1
 1597289,0.24907276,-0.04254403,-0.07368842,-0.07879565,-0.01691537,-0.
 02929828,-0.01001573,0.00585835,0.01060533,0.00356554,0.04734573,0.082
 00521,0.08168031,-0.10887883,0.10421117,-0.04254403,-0.00034371,-0.000
 89015,0.00105665,-0.01392497,0.02732596,-0.01211366,0.00798871,-0.0146
 7409,0.00625531,0.11515880,0.10421117,-0.22921152,0.07368842,-0.000890
 15,0.00068415,-0.00183017,-0.00202222,0.00068415,-0.00022918,0.0146740
 9,-0.02122954,0.01037615,-0.11597289,0.24907276,-0.04254403,0.07368842
 ,-0.07879565,-0.01691537,0.02929828,-0.01001573,0.00585835,-0.01060533
 ,0.00356554,0.00625531,-0.01037615,0.00356554,0.04734573,-0.08200521,0
 .08168031\\0.,0.,0.,0.,0.,0.00005219,0.00004920,0.,-0.00001740,-0.0000
 2460,-0.00004261,-0.00001740,-0.00002460,0.00004261,-0.00001740\\\@


 WE THE UNWILLING
 LED BY THE UNQUALIFIED
 HAVE BEEN DOING THE UNBELIEVABLE SO LONG WITH SO LITTLE
 THAT WE NOW ATTEMPT THE IMPOSSIBLE WITH NOTHING.

                                    -- ANONYMOUS
 Job cpu time:  0 days  0 hours  0 minutes  5.1 seconds.
 File lengths (MBytes):  RWF=      5 Int=      0 D2E=      0 Chk=      1 Scr=      1
 Normal termination of Gaussian 09 at Sat Aug 17 14:46:08 2024.
