 Entering Gaussian System, Link 0=/g100_work/pMI24_ChiCa/g09d1/g09d01/d01/build-node-6-2-59348/src/main/g09
 Input=geom.com
 Output=geom.log
 Initial command:
 /g100_work/pMI24_ChiCa/g09d1/g09d01/d01/build-node-6-2-59348/src/main/l1.exe "/g100_scratch/userexternal/ecabiati/g16_14397839/Gau-21771.inp" -scrdir="/g100_scratch/userexternal/ecabiati/g16_14397839/"
 Entering Link 1 = /g100_work/pMI24_ChiCa/g09d1/g09d01/d01/build-node-6-2-59348/src/main/l1.exe PID=     21772.
  
 Copyright (c) 1988,1990,1992,1993,1995,1998,2003,2009,2013,
            Gaussian, Inc.  All Rights Reserved.
  
 This is part of the Gaussian(R) 09 program.  It is based on
 the Gaussian(R) 03 system (copyright 2003, Gaussian, Inc.),
 the Gaussian(R) 98 system (copyright 1998, Gaussian, Inc.),
 the Gaussian(R) 94 system (copyright 1995, Gaussian, Inc.),
 the Gaussian 92(TM) system (copyright 1992, Gaussian, Inc.),
 the Gaussian 90(TM) system (copyright 1990, Gaussian, Inc.),
 the Gaussian 88(TM) system (copyright 1988, Gaussian, Inc.),
 the Gaussian 86(TM) system (copyright 1986, Carnegie Mellon
 University), and the Gaussian 82(TM) system (copyright 1983,
 Carnegie Mellon University). Gaussian is a federally registered
 trademark of Gaussian, Inc.
  
 This software contains proprietary and confidential information,
 including trade secrets, belonging to Gaussian, Inc.
  
 This software is provided under written license and may be
 used, copied, transmitted, or stored only in accord with that
 written license.
  
 The following legend is applicable only to US Government
 contracts under FAR:
  
                    RESTRICTED RIGHTS LEGEND
  
 Use, reproduction and disclosure by the US Government is
 subject to restrictions as set forth in subparagraphs (a)
 and (c) of the Commercial Computer Software - Restricted
 Rights clause in FAR 52.227-19.
  
 Gaussian, Inc.
 340 Quinnipiac St., Bldg. 40, Wallingford CT 06492
  
  
 ---------------------------------------------------------------
 Warning -- This program may not be used in any manner that
 competes with the business of Gaussian, Inc. or will provide
 assistance to any competitor of Gaussian, Inc.  The licensee
 of this program is prohibited from giving any competitor of
 Gaussian, Inc. access to this program.  By using this program,
 the user acknowledges that Gaussian, Inc. is engaged in the
 business of creating and licensing software in the field of
 computational chemistry and represents and warrants to the
 licensee that it is not a competitor of Gaussian, Inc. and that
 it will not use this program in any manner prohibited above.
 ---------------------------------------------------------------
  

 Cite this work as:
 Gaussian 09, Revision D.01,
 M. J. Frisch, G. W. Trucks, H. B. Schlegel, G. E. Scuseria, 
 M. A. Robb, J. R. Cheeseman, G. Scalmani, V. Barone, B. Mennucci, 
 G. A. Petersson, H. Nakatsuji, M. Caricato, X. Li, H. P. Hratchian, 
 A. F. Izmaylov, J. Bloino, G. Zheng, J. L. Sonnenberg, M. Hada, 
 M. Ehara, K. Toyota, R. Fukuda, J. Hasegawa, M. Ishida, T. Nakajima, 
 Y. Honda, O. Kitao, H. Nakai, T. Vreven, J. A. Montgomery, Jr., 
 J. E. Peralta, F. Ogliaro, M. Bearpark, J. J. Heyd, E. Brothers, 
 K. N. Kudin, V. N. Staroverov, T. Keith, R. Kobayashi, J. Normand, 
 K. Raghavachari, A. Rendell, J. C. Burant, S. S. Iyengar, J. Tomasi, 
 M. Cossi, N. Rega, J. M. Millam, M. Klene, J. E. Knox, J. B. Cross, 
 V. Bakken, C. Adamo, J. Jaramillo, R. Gomperts, R. E. Stratmann, 
 O. Yazyev, A. J. Austin, R. Cammi, C. Pomelli, J. W. Ochterski, 
 R. L. Martin, K. Morokuma, V. G. Zakrzewski, G. A. Voth, 
 P. Salvador, J. J. Dannenberg, S. Dapprich, A. D. Daniels, 
 O. Farkas, J. B. Foresman, J. V. Ortiz, J. Cioslowski, 
 and D. J. Fox, Gaussian, Inc., Wallingford CT, 2013.
 
 ******************************************
 Gaussian 09:  EM64L-G09RevD.01 24-Apr-2013
                13-Sep-2024 
 ******************************************
 %nproc=24
 Will use up to   24 processors via shared memory.
 %mem=2Gb
 %chk=ch4+h_to_ch3+h2.chk
 ----------------------------------------------------------------------
 #p B3LYP/6-31g(d,p) opt=Z-Matrix nosym temperature=300 pop=full gfinpu
 t
 ----------------------------------------------------------------------
 1/10=7,14=-1,18=40,26=3,38=1,112=300000/1,3;
 2/12=2,15=1,17=6,18=5,29=3,40=1/2;
 3/5=1,6=6,7=101,11=2,16=1,24=10,25=1,30=1,71=1,74=-5/1,2,3;
 4//1;
 5/5=2,38=5/2;
 6/7=3,28=1/1;
 7/29=1,30=1/1,2,3,16;
 1/10=7,14=-1,18=40,26=3/3(2);
 2/15=1,29=3/2;
 99//99;
 2/15=1,29=3/2;
 3/5=1,6=6,7=101,11=2,16=1,25=1,30=1,71=1,74=-5/1,2,3;
 4/5=5,16=3,69=1/1;
 5/5=2,38=5/2;
 7/30=1/1,2,3,16;
 1/14=-1,18=40,26=3/3(-5);
 2/15=1,29=3/2;
 6/7=3,19=2,28=1/1;
 99/9=1/99;
 Leave Link    1 at Fri Sep 13 17:52:30 2024, MaxMem=   268435456 cpu:         0.2
 (Enter /g100_work/pMI24_ChiCa/g09d1/g09d01/d01/build-node-6-2-59348/src/main/l101.exe)
 ---------------------------
 ch4+h to ch3+h2 pushing hc5
 ---------------------------
 Symbolic Z-matrix:
 Charge =  0 Multiplicity = 2
 c
 h                    1    hc2
 h                    1    hc3      2    hch3
 h                    1    hc4      2    hch4     3    dih4     0
 h                    1    hc5      2    hch5     3    dih5     0
 xx                   5    xxh6     1    xxhc6    4    dih6     0
 h                    5    hh7      6    hhxx7    1    dih7     0
       Variables:
  hc2                   1.0928                   
  hc3                   1.0927                   
  hch3                109.4909                   
  hc4                   1.0928                   
  hch4                109.4922                   
  dih4                120.0584                   
  hc5                   1.0929 Scan 20    0.1    
  hch5                109.445                    
  dih5               -119.964                    
  xxh6                  1.0317  -1        0.     
  xxhc6                89.4183  -1        0.     
  dih6                124.415   -1        0.     
  hh7                   2.6004                   
  hhxx7                90.5818                   
  dih7                180.0009                   
 
 NAtoms=      6 NQM=        6 NQMF=       0 NMMI=      0 NMMIF=      0
                NMic=       0 NMicF=      0.
                    Isotopes and Nuclear Properties:
 (Nuclear quadrupole moments (NQMom) in fm**2, nuclear magnetic moments (NMagM)
  in nuclear magnetons)

  Atom         1           2           3           4           5           6
 IAtWgt=          12           1           1           1           1           1
 AtmWgt=  12.0000000   1.0078250   1.0078250   1.0078250   1.0078250   1.0078250
 NucSpn=           0           1           1           1           1           1
 AtZEff=   0.0000000   0.0000000   0.0000000   0.0000000   0.0000000   0.0000000
 NQMom=    0.0000000   0.0000000   0.0000000   0.0000000   0.0000000   0.0000000
 NMagM=    0.0000000   2.7928460   2.7928460   2.7928460   2.7928460   2.7928460
 AtZNuc=   6.0000000   1.0000000   1.0000000   1.0000000   1.0000000   1.0000000
 Leave Link  101 at Fri Sep 13 17:52:30 2024, MaxMem=   268435456 cpu:         0.2
 (Enter /g100_work/pMI24_ChiCa/g09d1/g09d01/d01/build-node-6-2-59348/src/main/l103.exe)

 GradGradGradGradGradGradGradGradGradGradGradGradGradGradGradGradGradGrad
 Berny optimization.
 Initialization pass.
                       ----------------------------
                       !    Initial Parameters    !
                       ! (Angstroms and Degrees)  !
 ----------------------                            ----------------------
 !      Name          Value   Derivative information (Atomic Units)     !
 ------------------------------------------------------------------------
 !       hc2         1.0928   estimate D2E/DX2                          !
 !       hc3         1.0927   estimate D2E/DX2                          !
 !      hch3       109.4909   estimate D2E/DX2                          !
 !       hc4         1.0928   estimate D2E/DX2                          !
 !      hch4       109.4922   estimate D2E/DX2                          !
 !      dih4       120.0584   estimate D2E/DX2                          !
 !       hc5         1.0929   Scan                                      !
 !      hch5       109.445    estimate D2E/DX2                          !
 !      dih5      -119.964    estimate D2E/DX2                          !
 !      xxh6         1.0317   Frozen                                    !
 !      xxhc6       89.4183   Frozen                                    !
 !      dih6       124.415    Frozen                                    !
 !       hh7         2.6004   estimate D2E/DX2                          !
 !      hhxx7       90.5818   estimate D2E/DX2                          !
 !      dih7       180.0009   estimate D2E/DX2                          !
 ------------------------------------------------------------------------
 Trust Radius=3.00D-01 FncErr=1.00D-07 GrdErr=1.00D-06
 Number of optimizations in scan=  21
 Number of steps in this run=     25 maximum allowed number of steps=    100.
 GradGradGradGradGradGradGradGradGradGradGradGradGradGradGradGradGradGrad

 Leave Link  103 at Fri Sep 13 17:52:31 2024, MaxMem=   268435456 cpu:         0.1
 (Enter /g100_work/pMI24_ChiCa/g09d1/g09d01/d01/build-node-6-2-59348/src/main/l202.exe)
 ---------------------------------------------------------------------------------------------------
                            Z-MATRIX (ANGSTROMS AND DEGREES)
   CD    Cent   Atom    N1       Length/X        N2       Alpha/Y        N3        Beta/Z          J
 ---------------------------------------------------------------------------------------------------
      1      1  C 
      2      2  H        1   1.092800(     1)
      3      3  H        1   1.092700(     2)      2  109.491(     7)
      4      4  H        1   1.092800(     3)      2  109.492(     8)      3  120.058(    12)      0
      5      5  H        1   1.092900(     4)      2  109.445(     9)      3 -119.964(    13)      0
      6         X        5   1.031700(     5)      1   89.418(    10)      4  124.415(    14)      0
      7      6  H        5   2.600400(     6)      6   90.582(    11)      1  180.001(    15)      0
 ---------------------------------------------------------------------------------------------------
                         Z-Matrix orientation:                         
 ---------------------------------------------------------------------
 Center     Atomic      Atomic             Coordinates (Angstroms)
 Number     Number       Type             X           Y           Z
 ---------------------------------------------------------------------
      1          6           0        0.000000    0.000000    0.000000
      2          1           0        0.000000    0.000000    1.092800
      3          1           0        1.030082    0.000000   -0.364587
      4          1           0       -0.515993   -0.891626   -0.364644
      5          1           0       -0.514720    0.892817   -0.363828
      6         -1           0       -0.612010    1.220575    0.609575
      7          1           0       -1.739388    3.017166   -1.229514
 ---------------------------------------------------------------------
                    Distance matrix (angstroms):
                    1          2          3          4          5
     1  C    0.000000
     2  H    1.092800   0.000000
     3  H    1.092700   1.784670   0.000000
     4  H    1.092800   1.784766   1.784754   0.000000
     5  H    1.092900   1.784328   1.784247   1.784444   0.000000
     6  X    1.495306   1.448401   2.266111   2.328028   1.031700
     7  H    3.693300   4.185917   4.185852   4.186090   2.600400
                    6          7
     6  X    0.000000
     7  H    2.807306   0.000000
 Symmetry turned off by external request.
 Stoichiometry    CH5(2)
 Framework group  C1[X(CH5)]
 Deg. of freedom    12
 Full point group                 C1      NOp   1
 Rotational constants (GHZ):    157.4298271     31.3073293     31.3069078
 Leave Link  202 at Fri Sep 13 17:52:31 2024, MaxMem=   268435456 cpu:         0.2
 (Enter /g100_work/pMI24_ChiCa/g09d1/g09d01/d01/build-node-6-2-59348/src/main/l301.exe)
 Standard basis: 6-31G(d,p) (6D, 7F)
 Ernie: Thresh=  0.10000D-02 Tol=  0.10000D-05 Strict=F.
 AO basis set in the form of general basis input (Overlap normalization):
      1 0
 S   6 1.00       0.000000000000
      0.3047524880D+04  0.1834737132D-02
      0.4573695180D+03  0.1403732281D-01
      0.1039486850D+03  0.6884262226D-01
      0.2921015530D+02  0.2321844432D+00
      0.9286662960D+01  0.4679413484D+00
      0.3163926960D+01  0.3623119853D+00
 SP   3 1.00       0.000000000000
      0.7868272350D+01 -0.1193324198D+00  0.6899906659D-01
      0.1881288540D+01 -0.1608541517D+00  0.3164239610D+00
      0.5442492580D+00  0.1143456438D+01  0.7443082909D+00
 SP   1 1.00       0.000000000000
      0.1687144782D+00  0.1000000000D+01  0.1000000000D+01
 D   1 1.00       0.000000000000
      0.8000000000D+00  0.1000000000D+01
 ****
      2 0
 S   3 1.00       0.000000000000
      0.1873113696D+02  0.3349460434D-01
      0.2825394365D+01  0.2347269535D+00
      0.6401216923D+00  0.8137573261D+00
 S   1 1.00       0.000000000000
      0.1612777588D+00  0.1000000000D+01
 P   1 1.00       0.000000000000
      0.1100000000D+01  0.1000000000D+01
 ****
      3 0
 S   3 1.00       0.000000000000
      0.1873113696D+02  0.3349460434D-01
      0.2825394365D+01  0.2347269535D+00
      0.6401216923D+00  0.8137573261D+00
 S   1 1.00       0.000000000000
      0.1612777588D+00  0.1000000000D+01
 P   1 1.00       0.000000000000
      0.1100000000D+01  0.1000000000D+01
 ****
      4 0
 S   3 1.00       0.000000000000
      0.1873113696D+02  0.3349460434D-01
      0.2825394365D+01  0.2347269535D+00
      0.6401216923D+00  0.8137573261D+00
 S   1 1.00       0.000000000000
      0.1612777588D+00  0.1000000000D+01
 P   1 1.00       0.000000000000
      0.1100000000D+01  0.1000000000D+01
 ****
      5 0
 S   3 1.00       0.000000000000
      0.1873113696D+02  0.3349460434D-01
      0.2825394365D+01  0.2347269535D+00
      0.6401216923D+00  0.8137573261D+00
 S   1 1.00       0.000000000000
      0.1612777588D+00  0.1000000000D+01
 P   1 1.00       0.000000000000
      0.1100000000D+01  0.1000000000D+01
 ****
      6 0
 S   3 1.00       0.000000000000
      0.1873113696D+02  0.3349460434D-01
      0.2825394365D+01  0.2347269535D+00
      0.6401216923D+00  0.8137573261D+00
 S   1 1.00       0.000000000000
      0.1612777588D+00  0.1000000000D+01
 P   1 1.00       0.000000000000
      0.1100000000D+01  0.1000000000D+01
 ****

    40 basis functions,    63 primitive gaussians,    40 cartesian basis functions
     6 alpha electrons        5 beta electrons
       nuclear repulsion energy        14.8433973163 Hartrees.
 IExCor=  402 DFT=T Ex+Corr=B3LYP ExCW=0 ScaHFX=  0.200000
 ScaDFX=  0.800000  0.720000  1.000000  0.810000 ScalE2=  1.000000  1.000000
 IRadAn=      0 IRanWt=     -1 IRanGd=            0 ICorTp=0 IEmpDi=  4
 NAtoms=    6 NActive=    6 NUniq=    6 SFac= 1.00D+00 NAtFMM=   60 NAOKFM=F Big=F
 Integral buffers will be    131072 words long.
 Raffenetti 2 integral format.
 Two-electron integral symmetry is turned off.
 Leave Link  301 at Fri Sep 13 17:52:31 2024, MaxMem=   268435456 cpu:         0.1
 (Enter /g100_work/pMI24_ChiCa/g09d1/g09d01/d01/build-node-6-2-59348/src/main/l302.exe)
 NPDir=0 NMtPBC=     1 NCelOv=     1 NCel=       1 NClECP=     1 NCelD=      1
         NCelK=      1 NCelE2=     1 NClLst=     1 CellRange=     0.0.
 One-electron integrals computed using PRISM.
 NBasis=    40 RedAO= T EigKep=  1.74D-02  NBF=    40
 NBsUse=    40 1.00D-06 EigRej= -1.00D+00 NBFU=    40
 Precomputing XC quadrature grid using
 IXCGrd= 4 IRadAn=           0 IRanWt=          -1 IRanGd=           0 AccXCQ= 0.00D+00.
 Generated NRdTot=       0 NPtTot=           0 NUsed=           0 NTot=          32
 NSgBfM=    40    40    40    40    40 MxSgAt=     6 MxSgA2=     6.
 Leave Link  302 at Fri Sep 13 17:52:31 2024, MaxMem=   268435456 cpu:         1.3
 (Enter /g100_work/pMI24_ChiCa/g09d1/g09d01/d01/build-node-6-2-59348/src/main/l303.exe)
 DipDrv:  MaxL=1.
 Leave Link  303 at Fri Sep 13 17:52:31 2024, MaxMem=   268435456 cpu:         0.2
 (Enter /g100_work/pMI24_ChiCa/g09d1/g09d01/d01/build-node-6-2-59348/src/main/l401.exe)
 ExpMin= 1.61D-01 ExpMax= 3.05D+03 ExpMxC= 4.57D+02 IAcc=1 IRadAn=         1 AccDes= 0.00D+00
 Harris functional with IExCor=  402 and IRadAn=       1 diagonalized for initial guess.
 HarFok:  IExCor=  402 AccDes= 0.00D+00 IRadAn=         1 IDoV= 1 UseB2=F ITyADJ=14
 ICtDFT=  3500011 ScaDFX=  1.000000  1.000000  1.000000  1.000000
 FoFCou: FMM=F IPFlag=           0 FMFlag=      100000 FMFlg1=           0
         NFxFlg=           0 DoJE=T BraDBF=F KetDBF=T FulRan=T
         wScrn=  0.000000 ICntrl=     500 IOpCl=  0 I1Cent=   200000004 NGrid=           0
         NMat0=    1 NMatS0=      1 NMatT0=    0 NMatD0=    1 NMtDS0=    0 NMtDT0=    0
 Symmetry not used in FoFCou.
 Harris En= -41.0290100928968    
 JPrj=0 DoOrth=F DoCkMO=F.
 Initial guess <Sx>= 0.0000 <Sy>= 0.0000 <Sz>= 0.5000 <S**2>= 0.7500 S= 0.5000
 Leave Link  401 at Fri Sep 13 17:52:32 2024, MaxMem=   268435456 cpu:         1.3
 (Enter /g100_work/pMI24_ChiCa/g09d1/g09d01/d01/build-node-6-2-59348/src/main/l502.exe)
 UHF open shell SCF:
 Using DIIS extrapolation, IDIIS=  1040.
 Two-electron integral symmetry not used.
 Keep R1 and R2 ints in memory in canonical form, NReq=1558450.
 IVT=       24562 IEndB=       24562 NGot=   268435456 MDV=   267737675
 LenX=   267737675 LenY=   267735634
 Requested convergence on RMS density matrix=1.00D-08 within 128 cycles.
 Requested convergence on MAX density matrix=1.00D-06.
 Requested convergence on             energy=1.00D-06.
 No special actions if energy rises.
 FoFCou: FMM=F IPFlag=           0 FMFlag=           0 FMFlg1=           0
         NFxFlg=           0 DoJE=F BraDBF=F KetDBF=F FulRan=T
         wScrn=  0.000000 ICntrl=     600 IOpCl=  0 I1Cent=           0 NGrid=           0
         NMat0=    1 NMatS0=    820 NMatT0=    0 NMatD0=    1 NMtDS0=    0 NMtDT0=    0
 Symmetry not used in FoFCou.
 Integral accuracy reduced to 1.0D-05 until final iterations.

 Cycle   1  Pass 0  IDiag  1:
 E= -40.9316404656799    
 DIIS: error= 4.54D-02 at cycle   1 NSaved=   1.
 NSaved= 1 IEnMin= 1 EnMin= -40.9316404656799     IErMin= 1 ErrMin= 4.54D-02
 ErrMax= 4.54D-02  0.00D+00 EMaxC= 1.00D-01 BMatC= 3.36D-01 BMatP= 3.36D-01
 IDIUse=3 WtCom= 5.46D-01 WtEn= 4.54D-01
 Coeff-Com:  0.100D+01
 Coeff-En:   0.100D+01
 Coeff:      0.100D+01
 Gap=     0.506 Goal=   None    Shift=    0.000
 Gap=     0.199 Goal=   None    Shift=    0.000
 GapD=    0.199 DampG=1.000 DampE=0.500 DampFc=0.5000 IDamp=-1.
 Damping current iteration by 5.00D-01
 RMSDP=1.31D-02 MaxDP=1.51D-01              OVMax= 2.00D-01

 Cycle   2  Pass 0  IDiag  1:
 E= -40.9746557197519     Delta-E=       -0.043015254072 Rises=F Damp=T
 DIIS: error= 1.23D-02 at cycle   2 NSaved=   2.
 NSaved= 2 IEnMin= 2 EnMin= -40.9746557197519     IErMin= 2 ErrMin= 1.23D-02
 ErrMax= 1.23D-02  0.00D+00 EMaxC= 1.00D-01 BMatC= 7.73D-03 BMatP= 3.36D-01
 IDIUse=3 WtCom= 8.77D-01 WtEn= 1.23D-01
 Coeff-Com:  0.704D-01 0.930D+00
 Coeff-En:   0.103D+00 0.897D+00
 Coeff:      0.744D-01 0.926D+00
 Gap=     0.492 Goal=   None    Shift=    0.000
 Gap=     0.312 Goal=   None    Shift=    0.000
 RMSDP=1.58D-03 MaxDP=2.43D-02 DE=-4.30D-02 OVMax= 1.06D-01

 Cycle   3  Pass 0  IDiag  1:
 E= -41.0244688893642     Delta-E=       -0.049813169612 Rises=F Damp=F
 DIIS: error= 5.89D-04 at cycle   3 NSaved=   3.
 NSaved= 3 IEnMin= 3 EnMin= -41.0244688893642     IErMin= 3 ErrMin= 5.89D-04
 ErrMax= 5.89D-04  0.00D+00 EMaxC= 1.00D-01 BMatC= 4.42D-05 BMatP= 7.73D-03
 IDIUse=3 WtCom= 9.94D-01 WtEn= 5.89D-03
 Coeff-Com:  0.885D-02-0.249D-01 0.102D+01
 Coeff-En:   0.000D+00 0.000D+00 0.100D+01
 Coeff:      0.880D-02-0.248D-01 0.102D+01
 Gap=     0.438 Goal=   None    Shift=    0.000
 Gap=     0.334 Goal=   None    Shift=    0.000
 RMSDP=1.06D-04 MaxDP=1.79D-03 DE=-4.98D-02 OVMax= 2.32D-03

 Cycle   4  Pass 0  IDiag  1:
 E= -41.0244818627288     Delta-E=       -0.000012973365 Rises=F Damp=F
 DIIS: error= 4.82D-05 at cycle   4 NSaved=   4.
 NSaved= 4 IEnMin= 4 EnMin= -41.0244818627288     IErMin= 4 ErrMin= 4.82D-05
 ErrMax= 4.82D-05  0.00D+00 EMaxC= 1.00D-01 BMatC= 1.01D-07 BMatP= 4.42D-05
 IDIUse=1 WtCom= 1.00D+00 WtEn= 0.00D+00
 Coeff-Com: -0.252D-03 0.483D-03-0.471D-01 0.105D+01
 Coeff:     -0.252D-03 0.483D-03-0.471D-01 0.105D+01
 Gap=     0.438 Goal=   None    Shift=    0.000
 Gap=     0.335 Goal=   None    Shift=    0.000
 RMSDP=1.07D-05 MaxDP=1.92D-04 DE=-1.30D-05 OVMax= 2.61D-04

 Cycle   5  Pass 0  IDiag  1:
 E= -41.0244819347569     Delta-E=       -0.000000072028 Rises=F Damp=F
 DIIS: error= 9.21D-06 at cycle   5 NSaved=   5.
 NSaved= 5 IEnMin= 5 EnMin= -41.0244819347569     IErMin= 5 ErrMin= 9.21D-06
 ErrMax= 9.21D-06  0.00D+00 EMaxC= 1.00D-01 BMatC= 8.37D-09 BMatP= 1.01D-07
 IDIUse=1 WtCom= 1.00D+00 WtEn= 0.00D+00
 Coeff-Com: -0.139D-03 0.340D-03-0.179D-01 0.140D+00 0.877D+00
 Coeff:     -0.139D-03 0.340D-03-0.179D-01 0.140D+00 0.877D+00
 Gap=     0.438 Goal=   None    Shift=    0.000
 Gap=     0.336 Goal=   None    Shift=    0.000
 RMSDP=1.64D-06 MaxDP=2.34D-05 DE=-7.20D-08 OVMax= 4.68D-05

 Initial convergence to 1.0D-05 achieved.  Increase integral accuracy.
 Cycle   6  Pass 1  IDiag  1:
 E= -41.0244942072781     Delta-E=       -0.000012272521 Rises=F Damp=F
 DIIS: error= 2.89D-06 at cycle   1 NSaved=   1.
 NSaved= 1 IEnMin= 1 EnMin= -41.0244942072781     IErMin= 1 ErrMin= 2.89D-06
 ErrMax= 2.89D-06  0.00D+00 EMaxC= 1.00D-01 BMatC= 1.66D-09 BMatP= 1.66D-09
 IDIUse=1 WtCom= 1.00D+00 WtEn= 0.00D+00
 Coeff-Com:  0.100D+01
 Coeff:      0.100D+01
 Gap=     0.438 Goal=   None    Shift=    0.000
 Gap=     0.336 Goal=   None    Shift=    0.000
 RMSDP=1.64D-06 MaxDP=2.34D-05 DE=-1.23D-05 OVMax= 1.66D-05

 Cycle   7  Pass 1  IDiag  1:
 E= -41.0244942078382     Delta-E=       -0.000000000560 Rises=F Damp=F
 DIIS: error= 1.29D-06 at cycle   2 NSaved=   2.
 NSaved= 2 IEnMin= 2 EnMin= -41.0244942078382     IErMin= 2 ErrMin= 1.29D-06
 ErrMax= 1.29D-06  0.00D+00 EMaxC= 1.00D-01 BMatC= 1.37D-10 BMatP= 1.66D-09
 IDIUse=1 WtCom= 1.00D+00 WtEn= 0.00D+00
 Coeff-Com:  0.503D-01 0.950D+00
 Coeff:      0.503D-01 0.950D+00
 Gap=     0.438 Goal=   None    Shift=    0.000
 Gap=     0.336 Goal=   None    Shift=    0.000
 RMSDP=2.14D-07 MaxDP=3.08D-06 DE=-5.60D-10 OVMax= 4.69D-06

 Cycle   8  Pass 1  IDiag  1:
 E= -41.0244942078990     Delta-E=       -0.000000000061 Rises=F Damp=F
 DIIS: error= 6.35D-07 at cycle   3 NSaved=   3.
 NSaved= 3 IEnMin= 3 EnMin= -41.0244942078990     IErMin= 3 ErrMin= 6.35D-07
 ErrMax= 6.35D-07  0.00D+00 EMaxC= 1.00D-01 BMatC= 2.56D-11 BMatP= 1.37D-10
 IDIUse=1 WtCom= 1.00D+00 WtEn= 0.00D+00
 Coeff-Com: -0.703D-01 0.140D+00 0.930D+00
 Coeff:     -0.703D-01 0.140D+00 0.930D+00
 Gap=     0.438 Goal=   None    Shift=    0.000
 Gap=     0.336 Goal=   None    Shift=    0.000
 RMSDP=1.00D-07 MaxDP=1.59D-06 DE=-6.09D-11 OVMax= 2.91D-06

 Cycle   9  Pass 1  IDiag  1:
 E= -41.0244942079111     Delta-E=       -0.000000000012 Rises=F Damp=F
 DIIS: error= 2.86D-07 at cycle   4 NSaved=   4.
 NSaved= 4 IEnMin= 4 EnMin= -41.0244942079111     IErMin= 4 ErrMin= 2.86D-07
 ErrMax= 2.86D-07  0.00D+00 EMaxC= 1.00D-01 BMatC= 4.65D-12 BMatP= 2.56D-11
 IDIUse=1 WtCom= 1.00D+00 WtEn= 0.00D+00
 Coeff-Com: -0.234D-01-0.649D-01 0.226D+00 0.862D+00
 Coeff:     -0.234D-01-0.649D-01 0.226D+00 0.862D+00
 Gap=     0.438 Goal=   None    Shift=    0.000
 Gap=     0.336 Goal=   None    Shift=    0.000
 RMSDP=4.31D-08 MaxDP=7.09D-07 DE=-1.21D-11 OVMax= 9.16D-07

 Cycle  10  Pass 1  IDiag  1:
 E= -41.0244942079128     Delta-E=       -0.000000000002 Rises=F Damp=F
 DIIS: error= 1.27D-07 at cycle   5 NSaved=   5.
 NSaved= 5 IEnMin= 5 EnMin= -41.0244942079128     IErMin= 5 ErrMin= 1.27D-07
 ErrMax= 1.27D-07  0.00D+00 EMaxC= 1.00D-01 BMatC= 1.55D-12 BMatP= 4.65D-12
 IDIUse=1 WtCom= 1.00D+00 WtEn= 0.00D+00
 Coeff-Com:  0.555D-02-0.618D-01-0.105D+00 0.429D+00 0.732D+00
 Coeff:      0.555D-02-0.618D-01-0.105D+00 0.429D+00 0.732D+00
 Gap=     0.438 Goal=   None    Shift=    0.000
 Gap=     0.336 Goal=   None    Shift=    0.000
 RMSDP=1.71D-08 MaxDP=2.81D-07 DE=-1.63D-12 OVMax= 3.61D-07

 Cycle  11  Pass 1  IDiag  1:
 E= -41.0244942079133     Delta-E=       -0.000000000001 Rises=F Damp=F
 DIIS: error= 7.04D-09 at cycle   6 NSaved=   6.
 NSaved= 6 IEnMin= 6 EnMin= -41.0244942079133     IErMin= 6 ErrMin= 7.04D-09
 ErrMax= 7.04D-09  0.00D+00 EMaxC= 1.00D-01 BMatC= 5.56D-15 BMatP= 1.55D-12
 IDIUse=1 WtCom= 1.00D+00 WtEn= 0.00D+00
 Coeff-Com: -0.458D-03 0.124D-01 0.117D-01-0.877D-01-0.150D+00 0.121D+01
 Coeff:     -0.458D-03 0.124D-01 0.117D-01-0.877D-01-0.150D+00 0.121D+01
 Gap=     0.438 Goal=   None    Shift=    0.000
 Gap=     0.336 Goal=   None    Shift=    0.000
 RMSDP=2.14D-09 MaxDP=2.35D-08 DE=-5.54D-13 OVMax= 3.58D-08

 SCF Done:  E(UB3LYP) =  -41.0244942079     A.U. after   11 cycles
            NFock= 11  Conv=0.21D-08     -V/T= 2.0108
 <Sx>= 0.0000 <Sy>= 0.0000 <Sz>= 0.5000 <S**2>= 0.7500 S= 0.5000
 <L.S>=  0.00000000000    
 KE= 4.058673703258D+01 PE=-1.237555500707D+02 EE= 2.730092151391D+01
 Annihilation of the first spin contaminant:
 S**2 before annihilation     0.7500,   after     0.7500
 Leave Link  502 at Fri Sep 13 17:52:32 2024, MaxMem=   268435456 cpu:         5.1
 (Enter /g100_work/pMI24_ChiCa/g09d1/g09d01/d01/build-node-6-2-59348/src/main/l601.exe)
 Copying SCF densities to generalized density rwf, IOpCl= 1 IROHF=0.

 **********************************************************************

            Population analysis using the SCF density.

 **********************************************************************

 Alpha  occ. eigenvalues --  -10.16704  -0.69000  -0.38924  -0.38795  -0.38792
 Alpha  occ. eigenvalues --   -0.31691
 Alpha virt. eigenvalues --    0.12082   0.17677   0.17679   0.18444   0.52693
 Alpha virt. eigenvalues --    0.52974   0.52976   0.72075   0.87418   0.87422
 Alpha virt. eigenvalues --    0.90866   0.93864   1.11553   1.36374   1.36376
 Alpha virt. eigenvalues --    1.94738   1.94738   1.96796   2.04804   2.04823
 Alpha virt. eigenvalues --    2.04826   2.05075   2.05088   2.05341   2.62922
 Alpha virt. eigenvalues --    2.62936   2.63425   2.90963   2.90967   3.11564
 Alpha virt. eigenvalues --    3.41896   3.41908   3.42592   4.42816
  Beta  occ. eigenvalues --  -10.16689  -0.68963  -0.38786  -0.38785  -0.38783
  Beta virt. eigenvalues --   -0.05229   0.12286   0.17684   0.17686   0.19058
  Beta virt. eigenvalues --    0.52925   0.52966   0.52968   0.85445   0.87428
  Beta virt. eigenvalues --    0.87432   0.91861   1.00472   1.12750   1.36402
  Beta virt. eigenvalues --    1.36403   2.04803   2.04819   2.04822   2.05050
  Beta virt. eigenvalues --    2.05088   2.05101   2.18745   2.18745   2.20062
  Beta virt. eigenvalues --    2.62919   2.62933   2.63509   2.90974   2.90978
  Beta virt. eigenvalues --    3.11578   3.41908   3.41920   3.42618   4.42850
     Alpha Molecular Orbital Coefficients:
                           1         2         3         4         5
                           O         O         O         O         O
     Eigenvalues --   -10.16704  -0.69000  -0.38924  -0.38795  -0.38792
   1 1   C  1S          0.99285  -0.19945   0.00064   0.00001   0.00000
   2        2S          0.04958   0.38679  -0.00131  -0.00001  -0.00001
   3        2PX        -0.00000  -0.00015  -0.20438   0.39108   0.00815
   4        2PY         0.00000   0.00032   0.35815   0.18889   0.16865
   5        2PZ        -0.00000  -0.00012  -0.14346  -0.08565   0.40920
   6        3S         -0.01473   0.34535  -0.00197  -0.00003   0.00000
   7        3PX         0.00005  -0.00019  -0.09255   0.17683   0.00369
   8        3PY        -0.00009   0.00034   0.16218   0.08541   0.07626
   9        3PZ         0.00004  -0.00014  -0.06497  -0.03873   0.18504
  10        4XX        -0.00911  -0.00954  -0.00379   0.01643  -0.01027
  11        4YY        -0.00912  -0.00946   0.01127  -0.01202  -0.01081
  12        4ZZ        -0.00911  -0.00956  -0.00747  -0.00441   0.02108
  13        4XY         0.00000  -0.00008  -0.01518  -0.00795  -0.00712
  14        4XZ        -0.00000   0.00003   0.00612  -0.01167  -0.00025
  15        4YZ         0.00000  -0.00006  -0.01073  -0.00564  -0.00501
  16 2   H  1S         -0.00022   0.13767  -0.09601  -0.05702   0.27237
  17        2S          0.00255   0.04542  -0.08478  -0.05067   0.24203
  18        3PX        -0.00000   0.00000  -0.00390   0.00748   0.00016
  19        3PY         0.00000  -0.00001   0.00683   0.00362   0.00321
  20        3PZ         0.00018  -0.01312   0.00236   0.00140  -0.00668
  21 3   H  1S         -0.00022   0.13770  -0.09691   0.26440  -0.08577
  22        2S          0.00255   0.04543  -0.08556   0.23492  -0.07621
  23        3PX         0.00017  -0.01236   0.00095  -0.00579   0.00446
  24        3PY         0.00000  -0.00001   0.00683   0.00360   0.00323
  25        3PZ        -0.00006   0.00438  -0.00445   0.00307   0.00630
  26 4   H  1S         -0.00022   0.13766  -0.09892  -0.20647  -0.18504
  27        2S          0.00255   0.04542  -0.08735  -0.18346  -0.16443
  28        3PX        -0.00009   0.00620  -0.00638   0.00228  -0.00451
  29        3PY        -0.00014   0.01070   0.00254  -0.00535  -0.00481
  30        3PZ        -0.00006   0.00438  -0.00449  -0.00531   0.00454
  31 5   H  1S         -0.00025   0.13787   0.29107  -0.00092  -0.00154
  32        2S          0.00276   0.04446   0.25875  -0.00083  -0.00138
  33        3PX        -0.00008   0.00617   0.00325   0.00746   0.00012
  34        3PY         0.00013  -0.01070  -0.00556   0.00365   0.00329
  35        3PZ        -0.00005   0.00436   0.00231  -0.00166   0.00780
  36 6   H  1S          0.00011   0.00154   0.05326  -0.00017  -0.00029
  37        2S         -0.00027   0.00357   0.08306  -0.00027  -0.00045
  38        3PX        -0.00002   0.00012   0.00077   0.00004  -0.00000
  39        3PY         0.00004  -0.00021  -0.00133   0.00003   0.00003
  40        3PZ        -0.00001   0.00009   0.00054  -0.00001   0.00005
                           6         7         8         9        10
                           O         V         V         V         V
     Eigenvalues --    -0.31691   0.12082   0.17677   0.17679   0.18444
   1 1   C  1S          0.00640  -0.16269  -0.00000   0.00003   0.01162
   2        2S         -0.00972   0.20084   0.00002  -0.00003  -0.02200
   3        2PX         0.03958   0.01299  -0.08422  -0.32592   0.17970
   4        2PY        -0.06864  -0.02269  -0.18095  -0.12531  -0.31158
   5        2PZ         0.02798   0.00927  -0.32532   0.15407   0.12678
   6        3S         -0.05406   2.58958  -0.00002  -0.00084  -0.17218
   7        3PX         0.02597   0.04602  -0.29637  -1.14709   0.62972
   8        3PY        -0.04504  -0.08012  -0.63680  -0.44098  -1.09180
   9        3PZ         0.01836   0.03276  -1.14476   0.54221   0.44419
  10        4XX         0.00109  -0.01665  -0.00545   0.01624  -0.00324
  11        4YY        -0.00139  -0.01643  -0.01173  -0.00810   0.01191
  12        4ZZ         0.00171  -0.01672   0.01718  -0.00813  -0.00699
  13        4XY         0.00247  -0.00023  -0.00781  -0.00544  -0.01510
  14        4XZ        -0.00101   0.00009  -0.00255  -0.00993   0.00616
  15        4YZ         0.00175  -0.00016  -0.00554  -0.00380  -0.01067
  16 2   H  1S          0.01443  -0.01973   0.10750  -0.05092  -0.04355
  17        2S          0.01897  -1.03156   1.58373  -0.74989  -0.54520
  18        3PX         0.00075   0.00025  -0.00255  -0.00986   0.00574
  19        3PY        -0.00130  -0.00044  -0.00548  -0.00379  -0.00996
  20        3PZ        -0.00019  -0.00524   0.00311  -0.00147  -0.00091
  21 3   H  1S          0.01443  -0.01969  -0.00965   0.11849  -0.04366
  22        2S          0.01897  -1.03127  -0.14202   1.74663  -0.54695
  23        3PX         0.00007  -0.00485  -0.00364   0.00360   0.00106
  24        3PY        -0.00130  -0.00044  -0.00548  -0.00380  -0.00996
  25        3PZ         0.00077   0.00199  -0.00946  -0.00010   0.00571
  26 4   H  1S          0.01443  -0.01975  -0.09781  -0.06764  -0.04361
  27        2S          0.01896  -1.03164  -1.44089  -0.99644  -0.54653
  28        3PX         0.00109   0.00281   0.00301  -0.00602   0.00809
  29        3PY        -0.00072   0.00398   0.00414   0.00286  -0.00590
  30        3PZ         0.00077   0.00199  -0.00592   0.00738   0.00571
  31 5   H  1S         -0.04733  -0.01455  -0.00008   0.00003   0.13912
  32        2S          0.01064  -0.84843  -0.00076   0.00089   1.91506
  33        3PX        -0.00148   0.00266  -0.00254  -0.00984  -0.00265
  34        3PY         0.00256  -0.00462  -0.00547  -0.00378   0.00460
  35        3PZ        -0.00104   0.00188  -0.00982   0.00465  -0.00188
  36 6   H  1S          0.42814   0.06000   0.00005  -0.00006  -0.12066
  37        2S          0.65223   0.04193   0.00003  -0.00003  -0.07061
  38        3PX         0.00004  -0.00402  -0.00007  -0.00026   0.00900
  39        3PY        -0.00006   0.00697  -0.00014  -0.00011  -0.01562
  40        3PZ         0.00003  -0.00284  -0.00027   0.00013   0.00637
                          11        12        13        14        15
                           V         V         V         V         V
     Eigenvalues --     0.52693   0.52974   0.52976   0.72075   0.87418
   1 1   C  1S         -0.00134  -0.00001  -0.00000   0.01275   0.00002
   2        2S          0.00604   0.00001   0.00005  -0.21133   0.00002
   3        2PX         0.34695  -0.58160  -0.30494   0.18346   0.14813
   4        2PY        -0.59500  -0.16004  -0.40179  -0.31813   0.35562
   5        2PZ         0.24237   0.43935  -0.55005   0.12968   0.66310
   6        3S          0.01780   0.00028   0.00006   0.21368  -0.00017
   7        3PX        -0.68989   1.13081   0.59286  -0.18774  -0.25334
   8        3PY         1.18359   0.31136   0.78130   0.32552  -0.60817
   9        3PZ        -0.48205  -0.85425   1.06930  -0.13271  -1.13404
  10        4XX         0.01328  -0.06416   0.00613  -0.01952   0.07309
  11        4YY        -0.03854   0.01947   0.04984   0.02885   0.14004
  12        4ZZ         0.02575   0.04471  -0.05595  -0.03157  -0.21309
  13        4XY         0.05113   0.01333   0.03346  -0.04823   0.09349
  14        4XZ        -0.02106   0.03421   0.01794   0.01966   0.02745
  15        4YZ         0.03614   0.00943   0.02364  -0.03409   0.06615
  16 2   H  1S          0.16508   0.29104  -0.36429  -0.05078  -0.73423
  17        2S          0.08103   0.14607  -0.18289   0.08022   1.56067
  18        3PX        -0.00967   0.01577   0.00827   0.00795   0.00980
  19        3PY         0.01660   0.00434   0.01090  -0.01378   0.02359
  20        3PZ        -0.01412  -0.02546   0.03187  -0.00693  -0.09245
  21 3   H  1S          0.16765  -0.46028  -0.06879  -0.05077   0.09051
  22        2S          0.08229  -0.23121  -0.03465   0.08021  -0.19219
  23        3PX        -0.01672   0.03595   0.01129  -0.00388   0.02565
  24        3PY         0.01660   0.00435   0.01090  -0.01378   0.02356
  25        3PZ        -0.00426  -0.01905   0.01384   0.00981   0.03833
  26 4   H  1S          0.16401   0.17129   0.43412  -0.05075   0.64394
  27        2S          0.08064   0.08608   0.21799   0.08014  -1.36835
  28        3PX        -0.00623   0.01954   0.01781   0.01387  -0.04663
  29        3PY         0.02257   0.01084   0.02738  -0.00355  -0.07403
  30        3PZ        -0.00432  -0.00926   0.02165   0.00980   0.00403
  31 5   H  1S         -0.49722  -0.00209  -0.00096   0.26411   0.00017
  32        2S         -0.28094  -0.00129  -0.00070  -0.28880  -0.00020
  33        3PX        -0.02023   0.01566   0.00821  -0.02280   0.00982
  34        3PY         0.03492   0.00440   0.01089   0.03955   0.02359
  35        3PZ        -0.01422  -0.01189   0.01483  -0.01611   0.04397
  36 6   H  1S         -0.15624  -0.00065  -0.00030   1.14165  -0.00008
  37        2S          0.12655   0.00053   0.00025  -1.04109   0.00010
  38        3PX         0.00098   0.00057   0.00030  -0.00221  -0.00014
  39        3PY        -0.00171   0.00015   0.00038   0.00383  -0.00032
  40        3PZ         0.00070  -0.00042   0.00053  -0.00156  -0.00061
                          16        17        18        19        20
                           V         V         V         V         V
     Eigenvalues --     0.87422   0.90866   0.93864   1.11553   1.36374
   1 1   C  1S          0.00007   0.05972  -0.08074  -0.09997   0.00001
   2        2S         -0.00074  -0.70676   0.39807  -2.05363   0.00018
   3        2PX         0.65996  -0.25088  -0.19639   0.03236   0.00013
   4        2PY         0.26327   0.43389   0.34118  -0.05614   0.00006
   5        2PZ        -0.28862  -0.17669  -0.13899   0.02287  -0.00012
   6        3S          0.00116   1.18230  -0.46606   5.50711  -0.00053
   7        3PX        -1.12868   0.47146   0.39691  -0.08985  -0.00014
   8        3PY        -0.45028  -0.81568  -0.68914   0.15637  -0.00006
   9        3PZ         0.49362   0.33215   0.28082  -0.06355   0.00012
  10        4XX        -0.19629   0.04227  -0.01566  -0.10428   0.11797
  11        4YY         0.10353  -0.07977  -0.11578  -0.08465  -0.11796
  12        4ZZ         0.09279   0.07234   0.00936  -0.10924   0.00002
  13        4XY         0.06931   0.12140   0.09998  -0.01965  -0.36139
  14        4XZ         0.12260  -0.04961  -0.04066   0.00804   0.19251
  15        4YZ         0.04886   0.08579   0.07069  -0.01383   0.51073
  16 2   H  1S          0.32009   0.58450  -0.32684  -0.31779   0.00014
  17        2S         -0.67984  -0.90675  -0.03817  -0.96869  -0.00009
  18        3PX         0.04373  -0.01704  -0.01354   0.00198   0.08669
  19        3PY         0.01743   0.02946   0.02354  -0.00337   0.23002
  20        3PZ         0.04031   0.07870  -0.03898   0.01341   0.00002
  21 3   H  1S         -0.79508   0.58538  -0.32702  -0.31767  -0.00008
  22        2S          1.69041  -0.90876  -0.03778  -0.96900   0.00035
  23        3PX        -0.09558   0.06865  -0.04130   0.01330   0.02891
  24        3PY         0.01748   0.02947   0.02354  -0.00340  -0.23019
  25        3PZ         0.03016  -0.04233   0.00025  -0.00260   0.08174
  26 4   H  1S          0.47674   0.58435  -0.32652  -0.31767   0.00011
  27        2S         -1.01277  -0.90653  -0.03866  -0.96861  -0.00001
  28        3PX         0.00193  -0.05985   0.00031  -0.00373   0.07488
  29        3PY        -0.05480  -0.04452   0.04747  -0.01320   0.05014
  30        3PZ        -0.04865  -0.04225   0.00020  -0.00265  -0.22861
  31 5   H  1S          0.00009  -0.25184  -1.01555  -0.18476   0.00004
  32        2S          0.00027   1.00255   1.61701  -1.36871   0.00013
  33        3PX         0.04377   0.01018   0.05568  -0.01180  -0.19066
  34        3PY         0.01745  -0.01774  -0.09654   0.02045  -0.05001
  35        3PZ        -0.01914   0.00723   0.03935  -0.00832   0.14702
  36 6   H  1S          0.00009   0.28461   0.39587  -0.20566   0.00001
  37        2S         -0.00010  -0.33515  -0.48497   0.28464  -0.00002
  38        3PX        -0.00060   0.01431   0.02580  -0.02689  -0.00000
  39        3PY        -0.00024  -0.02483  -0.04475   0.04664  -0.00001
  40        3PZ         0.00026   0.01012   0.01824  -0.01901   0.00001
                          21        22        23        24        25
                           V         V         V         V         V
     Eigenvalues --     1.36376   1.94738   1.94738   1.96796   2.04804
   1 1   C  1S          0.00001  -0.00000   0.00000   0.00252  -0.00000
   2        2S          0.00010   0.00000   0.00001   0.20720  -0.00000
   3        2PX         0.00005   0.00079  -0.00047  -0.04590  -0.00192
   4        2PY         0.00009   0.00059   0.00011   0.07961  -0.00094
   5        2PZ         0.00010   0.00033   0.00092  -0.03245   0.00037
   6        3S         -0.00028  -0.00000  -0.00002  -0.48583   0.00002
   7        3PX        -0.00006   0.00060  -0.00035   0.12452   0.01008
   8        3PY        -0.00010   0.00045   0.00007  -0.21604   0.00497
   9        3PZ        -0.00012   0.00025   0.00070   0.08804  -0.00187
  10        4XX         0.31307   0.00164  -0.00330   0.00816   0.00948
  11        4YY        -0.31304  -0.00303  -0.00055  -0.07328  -0.00732
  12        4ZZ        -0.00001   0.00138   0.00385   0.02850  -0.00216
  13        4XY         0.13535  -0.00202  -0.00035   0.08124  -0.00481
  14        4XZ         0.51067  -0.00188   0.00113  -0.03310  -0.00687
  15        4YZ        -0.19313  -0.00142  -0.00028   0.05743  -0.00341
  16 2   H  1S         -0.00007  -0.00144  -0.00401  -0.00322   0.00193
  17        2S          0.00023   0.00095   0.00263   0.03286  -0.00018
  18        3PX         0.23000  -0.00168   0.00106  -0.00689   0.48369
  19        3PY        -0.08699  -0.00131  -0.00033   0.01195   0.29452
  20        3PZ        -0.00001  -0.00063  -0.00174  -0.02080   0.00112
  21 3   H  1S          0.00000  -0.00275   0.00325  -0.00318  -0.01073
  22        2S          0.00008   0.00181  -0.00213   0.03286   0.00116
  23        3PX         0.07674  -0.00153   0.00080  -0.02189  -0.16892
  24        3PY         0.08648  -0.00134  -0.00015   0.01197  -0.32002
  25        3PZ         0.21682  -0.00074  -0.00197   0.00041  -0.45854
  26 4   H  1S          0.00015   0.00419   0.00076  -0.00320   0.00873
  27        2S         -0.00018  -0.00275  -0.00050   0.03283  -0.00098
  28        3PX        -0.20337  -0.00166   0.00102   0.00058  -0.35737
  29        3PY         0.13306  -0.00100  -0.00018   0.02497   0.00727
  30        3PZ        -0.03764  -0.00068  -0.00199   0.00039   0.47269
  31 5   H  1S          0.00003  -0.00000   0.00000  -0.00350   0.00007
  32        2S          0.00008   0.00000   0.00002   0.39274  -0.00002
  33        3PX        -0.10342  -0.00154   0.00091  -0.03892   0.02296
  34        3PY        -0.13269  -0.00115  -0.00021   0.06756   0.00852
  35        3PZ        -0.17932  -0.00065  -0.00180  -0.02751  -0.01167
  36 6   H  1S          0.00001   0.00000   0.00000   0.04401  -0.00000
  37        2S         -0.00001  -0.00000  -0.00000  -0.07087   0.00000
  38        3PX        -0.00000   0.75904  -0.44949  -0.46346  -0.00012
  39        3PY        -0.00001   0.56754   0.10253   0.80397  -0.00008
  40        3PZ        -0.00000   0.31892   0.88736  -0.32766   0.00003
                          26        27        28        29        30
                           V         V         V         V         V
     Eigenvalues --     2.04823   2.04826   2.05075   2.05088   2.05341
   1 1   C  1S          0.00001   0.00000  -0.00000  -0.00001  -0.00046
   2        2S          0.00041  -0.00005   0.00046   0.00063  -0.04053
   3        2PX         0.00843   0.00770  -0.05037  -0.08229  -0.04612
   4        2PY         0.00622   0.00036  -0.06174  -0.02042   0.07580
   5        2PZ         0.00612  -0.01018  -0.07654   0.07066  -0.03118
   6        3S         -0.00099   0.00009  -0.00099  -0.00122   0.09490
   7        3PX        -0.04450  -0.04038   0.26175   0.42784   0.26198
   8        3PY        -0.03231  -0.00201   0.32167   0.10679  -0.43251
   9        3PZ        -0.03227   0.05353   0.39782  -0.36773   0.17764
  10        4XX        -0.01797  -0.06503  -0.01704   0.57326   0.12321
  11        4YY         0.05598   0.00206  -0.45196  -0.13952  -0.34042
  12        4ZZ        -0.03809   0.06298   0.46891  -0.43391   0.22545
  13        4XY         0.03082   0.00192  -0.31055  -0.10356   0.44136
  14        4XZ         0.03046   0.02744  -0.17809  -0.29145  -0.18849
  15        4YZ         0.02178   0.00151  -0.21960  -0.07281   0.31199
  16 2   H  1S          0.03434  -0.05671  -0.42178   0.39032  -0.20677
  17        2S         -0.00364   0.00613   0.04724  -0.04363   0.01742
  18        3PX         0.02445   0.39232  -0.12749  -0.14780  -0.12112
  19        3PY         0.38751  -0.38487  -0.08907  -0.08222   0.20478
  20        3PZ         0.01995  -0.03302  -0.24682   0.22836  -0.11728
  21 3   H  1S          0.03318   0.05918  -0.12062  -0.55765  -0.21743
  22        2S         -0.00350  -0.00637   0.01345   0.06234   0.01858
  23        3PX         0.02298  -0.09794  -0.12685  -0.28999  -0.15579
  24        3PY         0.34679   0.40541  -0.11101   0.01601   0.20493
  25        3PZ         0.00716  -0.37997  -0.14684   0.15855  -0.07005
  26 4   H  1S         -0.06135  -0.00304   0.55043   0.17668  -0.19844
  27        2S          0.00669   0.00033  -0.06146  -0.01963   0.01638
  28        3PX         0.41877   0.13119  -0.11705  -0.16597  -0.10055
  29        3PY        -0.33139  -0.00809  -0.25679  -0.08475   0.22370
  30        3PZ         0.32492  -0.16057  -0.17142   0.13244  -0.06796
  31 5   H  1S         -0.00619   0.00059  -0.00812  -0.00954   0.62550
  32        2S          0.00146  -0.00018   0.00181   0.00224  -0.15011
  33        3PX        -0.37912  -0.34691  -0.14180  -0.23528  -0.17303
  34        3PY        -0.34046  -0.00843  -0.17504  -0.05946   0.27818
  35        3PZ        -0.28888   0.46912  -0.21546   0.20280  -0.11903
  36 6   H  1S          0.00017  -0.00002   0.00022   0.00026  -0.01754
  37        2S         -0.00032   0.00004  -0.00042  -0.00050   0.03317
  38        3PX        -0.00010   0.00070  -0.00404  -0.00618   0.07264
  39        3PY         0.00187  -0.00012  -0.00208   0.00078  -0.12625
  40        3PZ        -0.00005  -0.00076  -0.00536   0.00348   0.05143
                          31        32        33        34        35
                           V         V         V         V         V
     Eigenvalues --     2.62922   2.62936   2.63425   2.90963   2.90967
   1 1   C  1S         -0.00001  -0.00000  -0.00086  -0.00000  -0.00001
   2        2S          0.00008   0.00020   0.03838   0.00004   0.00009
   3        2PX        -0.08912   0.11325   0.06974   0.00017   0.00044
   4        2PY         0.00374   0.09291  -0.12307   0.00037   0.00003
   5        2PZ         0.13636   0.07152   0.04889   0.00046  -0.00036
   6        3S         -0.00006  -0.00040  -0.06435   0.00005   0.00008
   7        3PX        -0.36171   0.45993   0.32139   0.00008   0.00018
   8        3PY         0.01498   0.37644  -0.56598   0.00019  -0.00010
   9        3PZ         0.55349   0.29036   0.22552   0.00027  -0.00010
  10        4XX         0.38168  -0.12873  -0.08557   0.42522   0.16596
  11        4YY         0.01492   0.33661   0.23351  -0.42523  -0.16575
  12        4ZZ        -0.39668  -0.20804  -0.16323   0.00004  -0.00017
  13        4XY         0.00864   0.22076  -0.32310   0.19013  -0.49102
  14        4XZ        -0.15000   0.19033   0.12965   0.69365   0.27040
  15        4YZ         0.00642   0.15610  -0.22853  -0.27138   0.69366
  16 2   H  1S          0.04620   0.02423   0.02343  -0.00012   0.00009
  17        2S         -0.44704  -0.23445  -0.17397  -0.00047   0.00028
  18        3PX         0.35570  -0.45189  -0.30297  -0.47140  -0.18393
  19        3PY        -0.01484  -0.37024   0.53397   0.18421  -0.47128
  20        3PZ         0.15030   0.07881   0.06078   0.00065  -0.00045
  21 3   H  1S         -0.04392   0.02813   0.02365  -0.00001  -0.00016
  22        2S          0.42463  -0.27190  -0.17582  -0.00001  -0.00053
  23        3PX        -0.26612  -0.05391  -0.04270  -0.15733  -0.06051
  24        3PY        -0.01472  -0.37021   0.53386  -0.18352   0.47186
  25        3PZ        -0.32405  -0.42621  -0.30468  -0.44462  -0.17353
  26 4   H  1S         -0.00218  -0.05178   0.02417   0.00013   0.00002
  27        2S          0.02112   0.50182  -0.18143   0.00050   0.00004
  28        3PX         0.37108  -0.08407  -0.43757   0.42059  -0.14951
  29        3PY         0.01203   0.26589   0.30150  -0.27210  -0.10616
  30        3PZ        -0.53319  -0.02523  -0.30775   0.07220   0.47147
  31 5   H  1S         -0.00019  -0.00070  -0.07701  -0.00003  -0.00001
  32        2S          0.00141   0.00507   0.60064  -0.00010   0.00007
  33        3PX         0.35636  -0.44858   0.08222   0.20836   0.39491
  34        3PY        -0.01642  -0.37576  -0.13443   0.27207   0.10609
  35        3PZ        -0.54328  -0.28302   0.05986   0.37241  -0.29848
  36 6   H  1S          0.00007   0.00025   0.02963  -0.00001   0.00000
  37        2S         -0.00014  -0.00052  -0.06180   0.00001  -0.00001
  38        3PX         0.00052  -0.00095  -0.02507  -0.00001  -0.00002
  39        3PY         0.00008  -0.00024   0.04351  -0.00002  -0.00000
  40        3PZ        -0.00093  -0.00061  -0.01772  -0.00001   0.00001
                          36        37        38        39        40
                           V         V         V         V         V
     Eigenvalues --     3.11564   3.41896   3.41908   3.42592   4.42816
   1 1   C  1S         -0.13953   0.00001  -0.00003  -0.00050  -0.47788
   2        2S          0.92367  -0.00010   0.00035  -0.02108   2.81940
   3        2PX         0.00625   0.34236   0.72594  -0.43558  -0.00174
   4        2PY        -0.01097   0.48403   0.21941   0.74049   0.00283
   5        2PZ         0.00464   0.69524  -0.51011  -0.30102  -0.00115
   6        3S          1.24079   0.00018   0.00082   0.06837   2.15065
   7        3PX        -0.00853   0.20148   0.42712  -0.27334  -0.01281
   8        3PY         0.01462   0.28504   0.12943   0.46539   0.02239
   9        3PZ        -0.00578   0.40930  -0.30041  -0.18924  -0.00908
  10        4XX        -0.06870  -0.13764   0.99132  -0.19474  -2.04824
  11        4YY        -0.08079  -0.75970  -0.33271   0.60493  -2.04292
  12        4ZZ        -0.06501   0.89752  -0.65833  -0.38068  -2.04947
  13        4XY         0.01285  -0.51144  -0.23144  -0.78180  -0.00535
  14        4XZ        -0.00507  -0.25593  -0.54185   0.32492   0.00220
  15        4YZ         0.00894  -0.36109  -0.16422  -0.55253  -0.00375
  16 2   H  1S         -0.26537  -0.62236   0.45641   0.26271   0.25292
  17        2S         -0.33645  -0.41963   0.30777   0.17969  -0.37636
  18        3PX         0.00284   0.00636   0.01309  -0.00491   0.00111
  19        3PY        -0.00491   0.00857   0.00413   0.00829  -0.00194
  20        3PZ         0.65597   0.92589  -0.67895  -0.39334  -0.31125
  21 3   H  1S         -0.26509  -0.08121  -0.76514   0.27093   0.25308
  22        2S         -0.33619  -0.05472  -0.51572   0.18514  -0.37646
  23        3PX         0.61886   0.11854   1.07142  -0.38382  -0.29309
  24        3PY        -0.00501   0.00884   0.00369   0.00835  -0.00193
  25        3PZ        -0.21602  -0.02706  -0.38363   0.13077   0.10492
  26 4   H  1S         -0.26532   0.70585   0.31443   0.25997   0.25297
  27        2S         -0.33633   0.47593   0.21202   0.17785  -0.37632
  28        3PX        -0.30592   0.49512   0.23102   0.17721   0.14847
  29        3PY        -0.53836   0.85405   0.38042   0.32328   0.25268
  30        3PZ        -0.21625   0.35815   0.14462   0.12539   0.10494
  31 5   H  1S         -0.24074  -0.00234  -0.00651  -0.81207   0.25487
  32        2S         -0.37404  -0.00180  -0.00503  -0.62199  -0.42931
  33        3PX        -0.30085   0.00429   0.00781  -0.58033   0.14011
  34        3PY         0.52158   0.01121   0.01182   1.00639  -0.24299
  35        3PZ        -0.21259   0.01077  -0.01195  -0.41011   0.09903
  36 6   H  1S         -0.01652  -0.00007  -0.00020  -0.02532  -0.02403
  37        2S          0.03787   0.00017   0.00048   0.05894   0.04965
  38        3PX         0.01211  -0.00013  -0.00024   0.01621   0.00802
  39        3PY        -0.02101  -0.00032  -0.00034  -0.02811  -0.01390
  40        3PZ         0.00856  -0.00032   0.00035   0.01145   0.00567
     Beta Molecular Orbital Coefficients:
                           1         2         3         4         5
                           O         O         O         O         O
     Eigenvalues --   -10.16689  -0.68963  -0.38786  -0.38785  -0.38783
   1 1   C  1S          0.99285  -0.19933   0.00025  -0.00023  -0.00009
   2        2S          0.04955   0.38665  -0.00009   0.00006   0.00002
   3        2PX         0.00000   0.00018   0.13072   0.41445   0.08158
   4        2PY        -0.00000  -0.00026   0.41175  -0.14260   0.07094
   5        2PZ         0.00000   0.00011  -0.09236  -0.05581   0.42896
   6        3S         -0.01473   0.34361  -0.00383   0.00362   0.00152
   7        3PX         0.00005   0.00019   0.05992   0.18675   0.03659
   8        3PY        -0.00009  -0.00032   0.18493  -0.06322   0.03265
   9        3PZ         0.00004   0.00014  -0.04123  -0.02578   0.19386
  10        4XX        -0.00910  -0.00947   0.00723   0.01651  -0.00813
  11        4YY        -0.00911  -0.00955  -0.00234  -0.01375  -0.01407
  12        4ZZ        -0.00910  -0.00946  -0.00469  -0.00296   0.02212
  13        4XY         0.00001   0.00008  -0.01732   0.00593  -0.00302
  14        4XZ        -0.00000  -0.00003  -0.00392  -0.01233  -0.00240
  15        4YZ         0.00001   0.00006  -0.01223   0.00422  -0.00216
  16 2   H  1S         -0.00022   0.13783  -0.06166  -0.03704   0.28574
  17        2S          0.00255   0.04562  -0.05473  -0.03298   0.25392
  18        3PX        -0.00000  -0.00000   0.00249   0.00795   0.00156
  19        3PY         0.00000   0.00001   0.00791  -0.00276   0.00135
  20        3PZ         0.00018  -0.01312   0.00152   0.00090  -0.00701
  21 3   H  1S         -0.00022   0.13786   0.10244   0.27274  -0.04406
  22        2S          0.00255   0.04562   0.09109   0.24230  -0.03918
  23        3PX         0.00017  -0.01237  -0.00264  -0.00576   0.00377
  24        3PY         0.00000   0.00001   0.00791  -0.00275   0.00134
  25        3PZ        -0.00006   0.00437   0.00003   0.00379   0.00744
  26 4   H  1S         -0.00022   0.13783  -0.24446  -0.04031  -0.15949
  27        2S          0.00255   0.04562  -0.21717  -0.03589  -0.14177
  28        3PX        -0.00009   0.00619  -0.00367   0.00695  -0.00243
  29        3PY        -0.00014   0.01071  -0.00273  -0.00449  -0.00558
  30        3PZ        -0.00006   0.00437  -0.00613  -0.00177   0.00539
  31 5   H  1S         -0.00024   0.13757   0.20376  -0.19548  -0.08222
  32        2S          0.00277   0.04644   0.18599  -0.17844  -0.07506
  33        3PX        -0.00007   0.00617   0.00760   0.00303  -0.00050
  34        3PY         0.00013  -0.01070  -0.00098   0.00576   0.00493
  35        3PZ        -0.00005   0.00436   0.00184  -0.00453   0.00675
  36 6   H  1S          0.00011   0.00023   0.00346  -0.00332  -0.00140
  37        2S         -0.00027   0.00226   0.01210  -0.01161  -0.00488
  38        3PX        -0.00002   0.00007   0.00036  -0.00029  -0.00013
  39        3PY         0.00004  -0.00013  -0.00056   0.00056   0.00025
  40        3PZ        -0.00001   0.00005   0.00024  -0.00024  -0.00006
                           6         7         8         9        10
                           V         V         V         V         V
     Eigenvalues --    -0.05229   0.12286   0.17684   0.17686   0.19058
   1 1   C  1S          0.02179  -0.16102  -0.00000   0.00003   0.01916
   2        2S         -0.01684   0.19943   0.00002  -0.00003  -0.03363
   3        2PX         0.03633   0.02405  -0.08428  -0.32570   0.17659
   4        2PY        -0.06300  -0.04188  -0.18095  -0.12507  -0.30626
   5        2PZ         0.02568   0.01710  -0.32501   0.15408   0.12471
   6        3S         -0.32444   2.56512  -0.00001  -0.00084  -0.29363
   7        3PX         0.07909   0.07994  -0.29691  -1.14765   0.62769
   8        3PY        -0.13718  -0.13898  -0.63751  -0.44068  -1.08856
   9        3PZ         0.05590   0.05675  -1.14499   0.54289   0.44320
  10        4XX         0.00365  -0.01647  -0.00546   0.01613  -0.00293
  11        4YY         0.00172  -0.01590  -0.01163  -0.00803   0.01296
  12        4ZZ         0.00413  -0.01662   0.01709  -0.00810  -0.00688
  13        4XY         0.00192  -0.00057  -0.00780  -0.00535  -0.01584
  14        4XZ        -0.00078   0.00023  -0.00260  -0.00993   0.00646
  15        4YZ         0.00136  -0.00041  -0.00547  -0.00384  -0.01120
  16 2   H  1S          0.00648  -0.02092   0.10743  -0.05094  -0.04444
  17        2S          0.04218  -1.05656   1.58360  -0.75061  -0.49436
  18        3PX         0.00041   0.00051  -0.00255  -0.00987   0.00585
  19        3PY        -0.00071  -0.00089  -0.00548  -0.00379  -0.01014
  20        3PZ         0.00049  -0.00527   0.00308  -0.00146  -0.00064
  21 3   H  1S          0.00648  -0.02088  -0.00960   0.11846  -0.04450
  22        2S          0.04218  -1.05625  -0.14139   1.74717  -0.49528
  23        3PX         0.00060  -0.00479  -0.00364   0.00357   0.00134
  24        3PY        -0.00071  -0.00089  -0.00548  -0.00379  -0.01014
  25        3PZ         0.00022   0.00224  -0.00946  -0.00009   0.00572
  26 4   H  1S          0.00649  -0.02095  -0.09781  -0.06756  -0.04447
  27        2S          0.04217  -1.05664  -1.44174  -0.99586  -0.49518
  28        3PX         0.00031   0.00317   0.00301  -0.00603   0.00811
  29        3PY        -0.00087   0.00370   0.00412   0.00284  -0.00624
  30        3PZ         0.00022   0.00224  -0.00592   0.00738   0.00573
  31 5   H  1S         -0.01861  -0.01013  -0.00006   0.00000   0.14552
  32        2S          0.33262  -0.73905  -0.00042   0.00049   1.95307
  33        3PX        -0.00079   0.00239  -0.00254  -0.00983  -0.00257
  34        3PY         0.00137  -0.00415  -0.00546  -0.00377   0.00447
  35        3PZ        -0.00056   0.00169  -0.00981   0.00465  -0.00182
  36 6   H  1S          0.23907   0.05275   0.00002  -0.00003  -0.10114
  37        2S          0.78091   0.13087   0.00005  -0.00006  -0.22806
  38        3PX         0.00094  -0.00239  -0.00006  -0.00021   0.00629
  39        3PY        -0.00162   0.00414  -0.00011  -0.00008  -0.01091
  40        3PZ         0.00066  -0.00169  -0.00021   0.00010   0.00445
                          11        12        13        14        15
                           V         V         V         V         V
     Eigenvalues --     0.52925   0.52966   0.52968   0.85445   0.87428
   1 1   C  1S          0.00006  -0.00000   0.00000  -0.00728   0.00002
   2        2S         -0.00268  -0.00010   0.00000   0.13547   0.00002
   3        2PX         0.37270  -0.57105  -0.30424  -0.31841   0.14805
   4        2PY        -0.60088  -0.17272  -0.40940   0.55217   0.35590
   5        2PZ         0.24328   0.44855  -0.54500  -0.22534   0.66304
   6        3S          0.00724   0.00041   0.00012  -0.20407  -0.00016
   7        3PX        -0.72234   1.11003   0.59137   0.50634  -0.25311
   8        3PY         1.16449   0.33569   0.79573  -0.87808  -0.60840
   9        3PZ        -0.47138  -0.87175   1.05915   0.35837  -1.13349
  10        4XX         0.01405  -0.06382   0.00591   0.03603   0.07316
  11        4YY        -0.03882   0.01824   0.04949  -0.09959   0.13985
  12        4ZZ         0.02415   0.04557  -0.05538   0.06993  -0.21298
  13        4XY         0.04897   0.01434   0.03404   0.13523   0.09361
  14        4XZ        -0.02149   0.03357   0.01788  -0.05511   0.02759
  15        4YZ         0.03462   0.01013   0.02406   0.09558   0.06605
  16 2   H  1S          0.16022   0.29701  -0.36086   0.19824  -0.73418
  17        2S          0.07972   0.14890  -0.18099  -0.42257   1.56012
  18        3PX        -0.00987   0.01546   0.00824  -0.01993   0.00983
  19        3PY         0.01589   0.00467   0.01108   0.03456   0.02359
  20        3PZ        -0.01407  -0.02600   0.03159   0.02399  -0.09246
  21 3   H  1S          0.17806  -0.45565  -0.06947   0.19782   0.09057
  22        2S          0.08863  -0.22865  -0.03496  -0.42173  -0.19226
  23        3PX        -0.01785   0.03548   0.01129   0.01592   0.02568
  24        3PY         0.01589   0.00466   0.01108   0.03457   0.02362
  25        3PZ        -0.00360  -0.01922   0.01367  -0.02680   0.03837
  26 4   H  1S          0.15347   0.17272   0.43677   0.19781   0.64415
  27        2S          0.07648   0.08669   0.21908  -0.42164  -1.36838
  28        3PX        -0.00642   0.01928   0.01786  -0.03788  -0.04670
  29        3PY         0.02188   0.01125   0.02771   0.00354  -0.07403
  30        3PZ        -0.00399  -0.00945   0.02155  -0.02679   0.00403
  31 5   H  1S         -0.48974  -0.01407  -0.00631  -0.73235  -0.00013
  32        2S         -0.25329  -0.00738  -0.00343   1.45026   0.00044
  33        3PX        -0.02131   0.01511   0.00808   0.04533   0.00983
  34        3PY         0.03575   0.00523   0.01132  -0.07862   0.02353
  35        3PZ        -0.01452  -0.01234   0.01462   0.03202   0.04392
  36 6   H  1S         -0.07683  -0.00220  -0.00099  -0.65734  -0.00023
  37        2S          0.02818   0.00082   0.00037   0.41037   0.00015
  38        3PX         0.00100   0.00046   0.00024   0.01311  -0.00010
  39        3PY        -0.00177   0.00007   0.00028  -0.02274  -0.00025
  40        3PZ         0.00072  -0.00031   0.00042   0.00927  -0.00045
                          16        17        18        19        20
                           V         V         V         V         V
     Eigenvalues --     0.87432   0.91861   1.00472   1.12750   1.36402
   1 1   C  1S          0.00007   0.09215  -0.05368  -0.09354   0.00001
   2        2S         -0.00074  -0.88735  -0.51774  -1.96406   0.00019
   3        2PX         0.66014  -0.06782  -0.14862   0.05021  -0.00012
   4        2PY         0.26303   0.11637   0.25782  -0.08709  -0.00001
   5        2PZ        -0.28859  -0.04740  -0.10505   0.03548   0.00007
   6        3S          0.00115   1.41725   1.42581   5.28825  -0.00054
   7        3PX        -1.12855   0.13294   0.35381  -0.14397   0.00004
   8        3PY        -0.44970  -0.22859  -0.61351   0.25021  -0.00002
   9        3PZ         0.49338   0.09305   0.25006  -0.10180  -0.00001
  10        4XX        -0.19617   0.03628  -0.03064  -0.09882   0.11821
  11        4YY         0.10346   0.00190  -0.11572  -0.06728  -0.11826
  12        4ZZ         0.09274   0.04456  -0.00948  -0.10674   0.00009
  13        4XY         0.06910   0.03397   0.08484  -0.03152  -0.36114
  14        4XZ         0.12271  -0.01400  -0.03456   0.01287   0.19310
  15        4YZ         0.04896   0.02399   0.05998  -0.02223   0.51041
  16 2   H  1S          0.32007   0.63696  -0.12501  -0.30374  -0.00010
  17        2S         -0.67960  -0.72956  -0.52420  -0.88532   0.00018
  18        3PX         0.04379  -0.00479  -0.01065   0.00313   0.08697
  19        3PY         0.01746   0.00819   0.01850  -0.00538   0.23000
  20        3PZ         0.04031   0.08484  -0.00003   0.01296  -0.00003
  21 3   H  1S         -0.79527   0.63768  -0.12494  -0.30362   0.00030
  22        2S          1.69033  -0.73119  -0.52437  -0.88560  -0.00006
  23        3PX        -0.09560   0.07851  -0.00357   0.01326   0.02909
  24        3PY         0.01744   0.00820   0.01849  -0.00541  -0.23018
  25        3PZ         0.03020  -0.03283  -0.01003  -0.00136   0.08199
  26 4   H  1S          0.47664   0.63660  -0.12488  -0.30363  -0.00002
  27        2S         -1.01226  -0.72898  -0.52429  -0.88524   0.00014
  28        3PX         0.00197  -0.04639  -0.01421  -0.00197   0.07468
  29        3PY        -0.05479  -0.06370   0.01234  -0.01417   0.05033
  30        3PZ        -0.04870  -0.03275  -0.01004  -0.00140  -0.22871
  31 5   H  1S          0.00040   0.40239  -0.70707  -0.09150   0.00004
  32        2S         -0.00039  -0.17949   1.03340  -1.53462   0.00014
  33        3PX         0.04370  -0.02683   0.02954  -0.01498  -0.19084
  34        3PY         0.01746   0.04644  -0.05124   0.02596  -0.05017
  35        3PZ        -0.01913  -0.01893   0.02089  -0.01057   0.14687
  36 6   H  1S          0.00023   0.22192   1.00974  -0.48455   0.00002
  37        2S         -0.00015  -0.16356  -0.90876   0.51666  -0.00003
  38        3PX        -0.00045  -0.00220   0.01444  -0.02220  -0.00001
  39        3PY        -0.00017   0.00383  -0.02505   0.03851  -0.00001
  40        3PZ         0.00019  -0.00156   0.01021  -0.01569   0.00001
                          21        22        23        24        25
                           V         V         V         V         V
     Eigenvalues --     1.36403   2.04803   2.04819   2.04822   2.05050
   1 1   C  1S          0.00001  -0.00000   0.00000   0.00000  -0.00006
   2        2S          0.00010   0.00000  -0.00014   0.00001   0.00677
   3        2PX        -0.00008  -0.00199   0.00917   0.00767  -0.04254
   4        2PY        -0.00008  -0.00093   0.00499   0.00051   0.09959
   5        2PZ        -0.00013   0.00041   0.00675  -0.01028  -0.03613
   6        3S         -0.00029   0.00000   0.00024  -0.00005  -0.01258
   7        3PX         0.00003   0.01048  -0.04806  -0.04033   0.21450
   8        3PY         0.00002   0.00495  -0.02660  -0.00272  -0.50612
   9        3PZ         0.00005  -0.00204  -0.03535   0.05409   0.18302
  10        4XX         0.31288   0.00993  -0.01914  -0.06557   0.07029
  11        4YY        -0.31277  -0.00756   0.06086   0.00172  -0.28659
  12        4ZZ        -0.00010  -0.00237  -0.04168   0.06386   0.21462
  13        4XY         0.13578  -0.00480   0.02578   0.00264   0.48450
  14        4XZ         0.51037  -0.00715   0.03276   0.02751  -0.14481
  15        4YZ        -0.19363  -0.00339   0.01822   0.00187   0.34246
  16 2   H  1S          0.00023   0.00212   0.03748  -0.05743  -0.19245
  17        2S         -0.00009  -0.00020  -0.00414   0.00632   0.02290
  18        3PX         0.22997   0.48033   0.02793   0.39633  -0.09210
  19        3PY        -0.08729   0.29510   0.38863  -0.38061   0.22063
  20        3PZ         0.00005   0.00123   0.02183  -0.03344  -0.11327
  21 3   H  1S          0.00006  -0.01120   0.03552   0.05951  -0.14804
  22        2S          0.00001   0.00121  -0.00390  -0.00650   0.01792
  23        3PX         0.07674  -0.16810   0.02418  -0.09919  -0.11583
  24        3PY         0.08676  -0.32573   0.34074   0.40411   0.21270
  25        3PZ         0.21678  -0.45543   0.00634  -0.38401  -0.06570
  26 4   H  1S         -0.00021   0.00885  -0.05969  -0.00340  -0.26395
  27        2S          0.00021  -0.00099   0.00653   0.00038   0.03077
  28        3PX        -0.20349  -0.36127   0.41695   0.12973  -0.06450
  29        3PY         0.13312   0.00984  -0.33356  -0.00896   0.25011
  30        3PZ        -0.03738   0.47172   0.32971  -0.15570  -0.05555
  31 5   H  1S          0.00003   0.00022  -0.01327   0.00134   0.60314
  32        2S          0.00008  -0.00002   0.00128  -0.00016  -0.05952
  33        3PX        -0.10323   0.02862  -0.37540  -0.34821  -0.14512
  34        3PY        -0.13268   0.01113  -0.34374  -0.00922   0.30366
  35        3PZ        -0.17954  -0.01359  -0.28895   0.46760  -0.12226
  36 6   H  1S          0.00002  -0.00000   0.00017  -0.00002  -0.00818
  37        2S         -0.00002   0.00001  -0.00038   0.00004   0.01741
  38        3PX        -0.00000   0.00008   0.00038  -0.00052  -0.03885
  39        3PY        -0.00001   0.00007  -0.00182   0.00014   0.06626
  40        3PZ        -0.00001  -0.00003   0.00025   0.00050  -0.02719
                          26        27        28        29        30
                           V         V         V         V         V
     Eigenvalues --     2.05088   2.05101   2.18745   2.18745   2.20062
   1 1   C  1S         -0.00001  -0.00003   0.00000   0.00000  -0.00002
   2        2S          0.00054   0.00054  -0.00003   0.00015   0.18398
   3        2PX        -0.05287  -0.08812   0.00155  -0.00126  -0.03298
   4        2PY        -0.05195  -0.01341   0.00128   0.00010   0.05722
   5        2PZ        -0.08205   0.06527   0.00099   0.00185  -0.02331
   6        3S         -0.00088  -0.00075   0.00006  -0.00032  -0.38881
   7        3PX         0.27427   0.45763  -0.00346   0.00279   0.03785
   8        3PY         0.27106   0.07061  -0.00288  -0.00017  -0.06577
   9        3PZ         0.42592  -0.33955  -0.00220  -0.00416   0.02678
  10        4XX        -0.02310   0.58133  -0.00098   0.00299  -0.02248
  11        4YY        -0.47900  -0.18114   0.00261   0.00011   0.00272
  12        4ZZ         0.50196  -0.40037  -0.00163  -0.00313  -0.02873
  13        4XY        -0.26163  -0.06854   0.00176   0.00006  -0.02506
  14        4XZ        -0.18656  -0.31167   0.00151  -0.00118   0.01025
  15        4YZ        -0.18504  -0.04805   0.00124   0.00001  -0.01771
  16 2   H  1S         -0.45151   0.36014   0.00116   0.00225   0.04048
  17        2S          0.05056  -0.04018   0.00060   0.00117   0.02336
  18        3PX        -0.13379  -0.16053   0.00023  -0.00022   0.02853
  19        3PY        -0.06509  -0.06484   0.00026   0.00004  -0.04947
  20        3PZ        -0.26432   0.21079   0.00105   0.00201   0.00730
  21 3   H  1S         -0.12324  -0.57740   0.00133  -0.00209   0.04050
  22        2S          0.01378   0.06449   0.00069  -0.00109   0.02337
  23        3PX        -0.13234  -0.30618   0.00121  -0.00170   0.01641
  24        3PY        -0.09070   0.03266   0.00026  -0.00010  -0.04948
  25        3PZ        -0.15767   0.14777  -0.00020   0.00091   0.02445
  26 4   H  1S          0.52258   0.17005  -0.00251  -0.00006   0.04043
  27        2S         -0.05824  -0.01885  -0.00131  -0.00003   0.02336
  28        3PX        -0.12007  -0.17654   0.00121  -0.00014   0.03460
  29        3PY        -0.23163  -0.06979   0.00173   0.00004  -0.03893
  30        3PZ        -0.18019   0.12229   0.00084   0.00036   0.02445
  31 5   H  1S          0.05201   0.04696   0.00002  -0.00012  -0.14039
  32        2S         -0.00525  -0.00469  -0.00005   0.00027   0.33029
  33        3PX        -0.15187  -0.25479   0.00018  -0.00015  -0.00608
  34        3PY        -0.14511  -0.03702   0.00015   0.00001   0.01066
  35        3PZ        -0.23388   0.18600   0.00012   0.00022  -0.00431
  36 6   H  1S         -0.00071  -0.00064  -0.00001   0.00004   0.04516
  37        2S          0.00151   0.00136   0.00001  -0.00006  -0.06718
  38        3PX        -0.00125   0.00062   0.68943  -0.55081  -0.46694
  39        3PY         0.00838   0.00611   0.57615   0.02342   0.81101
  40        3PZ         0.00105  -0.00508   0.43900   0.83428  -0.33107
                          31        32        33        34        35
                           V         V         V         V         V
     Eigenvalues --     2.62919   2.62933   2.63509   2.90974   2.90978
   1 1   C  1S         -0.00001  -0.00000  -0.00100  -0.00000  -0.00001
   2        2S          0.00007   0.00018   0.04263   0.00003   0.00009
   3        2PX        -0.08922   0.11326   0.06908   0.00014   0.00039
   4        2PY         0.00379   0.09316  -0.12161   0.00033   0.00002
   5        2PZ         0.13646   0.07151   0.04848   0.00041  -0.00032
   6        3S         -0.00006  -0.00036  -0.07069   0.00005   0.00008
   7        3PX        -0.36177   0.45947   0.32278   0.00014   0.00028
   8        3PY         0.01518   0.37710  -0.56708   0.00026  -0.00007
   9        3PZ         0.55335   0.29003   0.22673   0.00036  -0.00018
  10        4XX         0.38174  -0.12872  -0.08628   0.42524   0.16608
  11        4YY         0.01484   0.33641   0.23357  -0.42526  -0.16585
  12        4ZZ        -0.39667  -0.20785  -0.16438   0.00005  -0.00018
  13        4XY         0.00867   0.22120  -0.32311   0.19023  -0.49104
  14        4XZ        -0.15006   0.19007   0.12996   0.69367   0.27055
  15        4YZ         0.00662   0.15641  -0.22853  -0.27154   0.69369
  16 2   H  1S          0.04621   0.02422   0.02397  -0.00014   0.00011
  17        2S         -0.44700  -0.23423  -0.17414  -0.00051   0.00032
  18        3PX         0.35584  -0.45142  -0.30298  -0.47139  -0.18403
  19        3PY        -0.01514  -0.37095   0.53271   0.18430  -0.47127
  20        3PZ         0.15042   0.07881   0.06112   0.00062  -0.00043
  21 3   H  1S         -0.04395   0.02812   0.02416  -0.00001  -0.00019
  22        2S          0.42471  -0.27169  -0.17573  -0.00002  -0.00058
  23        3PX        -0.26623  -0.05375  -0.04253  -0.15733  -0.06057
  24        3PY        -0.01480  -0.37093   0.53260  -0.18362   0.47184
  25        3PZ        -0.32392  -0.42577  -0.30499  -0.44461  -0.17360
  26 4   H  1S         -0.00219  -0.05183   0.02459   0.00015   0.00003
  27        2S          0.02119   0.50208  -0.18049   0.00055   0.00006
  28        3PX         0.37120  -0.08352  -0.43704   0.42062  -0.14946
  29        3PY         0.01193   0.26570   0.30117  -0.27212  -0.10622
  30        3PZ        -0.53304  -0.02483  -0.30761   0.07210   0.47151
  31 5   H  1S         -0.00016  -0.00061  -0.07922  -0.00003  -0.00001
  32        2S          0.00121   0.00434   0.60645  -0.00010   0.00007
  33        3PX         0.35626  -0.44861   0.08115   0.20820   0.39477
  34        3PY        -0.01637  -0.37551  -0.13385   0.27193   0.10609
  35        3PZ        -0.54321  -0.28304   0.05887   0.37229  -0.29827
  36 6   H  1S          0.00007   0.00024   0.03327  -0.00001   0.00000
  37        2S         -0.00013  -0.00047  -0.06530   0.00001  -0.00001
  38        3PX         0.00078  -0.00134  -0.03625  -0.00000  -0.00002
  39        3PY         0.00009  -0.00044   0.06290  -0.00002  -0.00000
  40        3PZ        -0.00136  -0.00087  -0.02562  -0.00001   0.00001
                          36        37        38        39        40
                           V         V         V         V         V
     Eigenvalues --     3.11578   3.41908   3.41920   3.42618   4.42850
   1 1   C  1S         -0.13949   0.00001  -0.00003  -0.00048  -0.47788
   2        2S          0.92310  -0.00010   0.00035  -0.02131   2.81939
   3        2PX         0.00647   0.34237   0.72601  -0.43541  -0.00179
   4        2PY        -0.01134   0.48397   0.21928   0.74051   0.00293
   5        2PZ         0.00479   0.69525  -0.51004  -0.30104  -0.00119
   6        3S          1.24121   0.00017   0.00081   0.06856   2.15079
   7        3PX        -0.00865   0.20148   0.42712  -0.27333  -0.01290
   8        3PY         0.01484   0.28499   0.12934   0.46555   0.02254
   9        3PZ        -0.00587   0.40927  -0.30034  -0.18932  -0.00914
  10        4XX        -0.06839  -0.13764   0.99144  -0.19425  -2.04824
  11        4YY        -0.08088  -0.75981  -0.33285   0.60517  -2.04284
  12        4ZZ        -0.06461   0.89763  -0.65831  -0.38041  -2.04949
  13        4XY         0.01325  -0.51142  -0.23135  -0.78188  -0.00543
  14        4XZ        -0.00523  -0.25595  -0.54194   0.32481   0.00223
  15        4YZ         0.00921  -0.36110  -0.16412  -0.55259  -0.00381
  16 2   H  1S         -0.26555  -0.62241   0.45637   0.26261   0.25293
  17        2S         -0.33645  -0.41959   0.30770   0.17966  -0.37633
  18        3PX         0.00291   0.00637   0.01313  -0.00488   0.00112
  19        3PY        -0.00502   0.00860   0.00412   0.00825  -0.00196
  20        3PZ         0.65611   0.92589  -0.67885  -0.39312  -0.31127
  21 3   H  1S         -0.26527  -0.08123  -0.76522   0.27066   0.25309
  22        2S         -0.33619  -0.05472  -0.51570   0.18500  -0.37643
  23        3PX         0.61901   0.11856   1.07145  -0.38335  -0.29310
  24        3PY        -0.00512   0.00887   0.00371   0.00831  -0.00194
  25        3PZ        -0.21601  -0.02703  -0.38366   0.13063   0.10493
  26 4   H  1S         -0.26549   0.70585   0.31440   0.25993   0.25298
  27        2S         -0.33633   0.47586   0.21197   0.17787  -0.37629
  28        3PX        -0.30590   0.49510   0.23102   0.17717   0.14849
  29        3PY        -0.53855   0.85398   0.38035   0.32314   0.25268
  30        3PZ        -0.21623   0.35816   0.14457   0.12536   0.10495
  31 5   H  1S         -0.24043  -0.00229  -0.00637  -0.81235   0.25479
  32        2S         -0.37446  -0.00176  -0.00492  -0.62212  -0.42963
  33        3PX        -0.30058   0.00433   0.00792  -0.58031   0.14004
  34        3PY         0.52110   0.01116   0.01165   1.00636  -0.24287
  35        3PZ        -0.21240   0.01080  -0.01189  -0.41010   0.09898
  36 6   H  1S         -0.01776  -0.00007  -0.00021  -0.02691  -0.02513
  37        2S          0.03900   0.00017   0.00048   0.06037   0.05061
  38        3PX         0.01445  -0.00015  -0.00027   0.01842   0.00854
  39        3PY        -0.02507  -0.00037  -0.00038  -0.03194  -0.01481
  40        3PZ         0.01021  -0.00036   0.00040   0.01302   0.00604
     Alpha Density Matrix:
                           1         2         3         4         5
   1 1   C  1S          1.02557
   2        2S         -0.02798   0.15216
   3        2PX         0.00015  -0.00018   0.19635
   4        2PY        -0.00027   0.00032  -0.00067   0.19711
   5        2PZ         0.00011  -0.00013   0.00027  -0.00047   0.19615
   6        3S         -0.08385   0.13338  -0.00180   0.00311  -0.00127
   7        3PX         0.00020  -0.00020   0.08913  -0.00090   0.00037
   8        3PY        -0.00034   0.00035  -0.00090   0.09017  -0.00064
   9        3PZ         0.00014  -0.00014   0.00037  -0.00064   0.08887
  10        4XX        -0.00714  -0.00415   0.00716  -0.00006  -0.00503
  11        4YY        -0.00717  -0.00411  -0.00715   0.00004  -0.00505
  12        4ZZ        -0.00713  -0.00416   0.00004  -0.00007   0.01013
  13        4XY         0.00003  -0.00003   0.00003  -0.00831   0.00001
  14        4XZ        -0.00001   0.00001  -0.00585   0.00001  -0.00001
  15        4YZ         0.00002  -0.00002   0.00001  -0.00587   0.00002
  16 2   H  1S         -0.02764   0.05322   0.00010  -0.00017   0.13050
  17        2S         -0.00646   0.01762   0.00023  -0.00040   0.11606
  18        3PX        -0.00000  -0.00000   0.00375  -0.00001   0.00001
  19        3PY         0.00000   0.00000  -0.00001   0.00376  -0.00001
  20        3PZ         0.00279  -0.00507   0.00000  -0.00001  -0.00320
  21 3   H  1S         -0.02765   0.05323   0.12306  -0.00018  -0.04345
  22        2S         -0.00646   0.01762   0.10948  -0.00041  -0.03851
  23        3PX         0.00263  -0.00478  -0.00242  -0.00001   0.00219
  24        3PY         0.00000   0.00000  -0.00001   0.00376  -0.00000
  25        3PZ        -0.00093   0.00169   0.00219  -0.00000   0.00298
  26 4   H  1S         -0.02765   0.05323  -0.06149  -0.10658  -0.04346
  27        2S         -0.00647   0.01763  -0.05449  -0.09495  -0.03851
  28        3PX        -0.00132   0.00239   0.00220  -0.00269  -0.00109
  29        3PY        -0.00228   0.00413  -0.00268  -0.00086  -0.00190
  30        3PZ        -0.00093   0.00169  -0.00109  -0.00190   0.00298
  31 5   H  1S         -0.02786   0.05339  -0.06176   0.10711  -0.04365
  32        2S         -0.00589   0.01689  -0.05280   0.09157  -0.03732
  33        3PX        -0.00131   0.00239   0.00220   0.00269  -0.00110
  34        3PY         0.00228  -0.00415   0.00269  -0.00092   0.00190
  35        3PZ        -0.00093   0.00169  -0.00110   0.00190   0.00297
  36 6   H  1S          0.00258  -0.00363   0.00599  -0.01039   0.00423
  37        2S          0.00324  -0.00508   0.00873  -0.01514   0.00617
  38        3PX        -0.00004   0.00004  -0.00014   0.00028  -0.00011
  39        3PY         0.00008  -0.00008   0.00028  -0.00046   0.00020
  40        3PZ        -0.00003   0.00003  -0.00011   0.00020  -0.00006
                           6         7         8         9        10
   6        3S          0.12241
   7        3PX        -0.00129   0.04052
   8        3PY         0.00223  -0.00079   0.04144
   9        3PZ        -0.00091   0.00032  -0.00056   0.04030
  10        4XX        -0.00321   0.00325  -0.00005  -0.00227   0.00057
  11        4YY        -0.00308  -0.00324   0.00004  -0.00229   0.00004
[...]
  21 3   H  1S          0.21259
  22        2S          0.10353   0.12425
  23        3PX         0.00000   0.00000   0.00040
  24        3PY         0.00000   0.00000   0.00000   0.00020
  25        3PZ         0.00000   0.00000   0.00000   0.00000   0.00022
  26 4   H  1S         -0.00041  -0.00636   0.00005   0.00000  -0.00000
  27        2S         -0.00636  -0.01837   0.00012   0.00000  -0.00000
  28        3PX         0.00005   0.00012   0.00000   0.00000   0.00000
  29        3PY        -0.00000  -0.00000   0.00000   0.00000  -0.00000
  30        3PZ         0.00000   0.00000  -0.00000  -0.00000   0.00000
  31 5   H  1S         -0.00000   0.00001   0.00000  -0.00000   0.00000
  32        2S         -0.00000   0.00005   0.00000   0.00000   0.00000
  33        3PX         0.00000   0.00000   0.00000   0.00000   0.00000
  34        3PY         0.00000   0.00000   0.00000   0.00000   0.00000
  35        3PZ         0.00000   0.00000   0.00000  -0.00000  -0.00000
  36 6   H  1S         -0.00000   0.00000  -0.00000  -0.00000  -0.00000
  37        2S         -0.00000   0.00001  -0.00000  -0.00000  -0.00000
  38        3PX        -0.00000   0.00000   0.00000  -0.00000   0.00000
  39        3PY        -0.00000   0.00000   0.00000  -0.00000   0.00000
  40        3PZ         0.00000  -0.00000  -0.00000   0.00000   0.00000
                          26        27        28        29        30
  26 4   H  1S          0.21259
  27        2S          0.10354   0.12426
  28        3PX         0.00000   0.00000   0.00040
  29        3PY         0.00000   0.00000   0.00000   0.00020
  30        3PZ         0.00000   0.00000   0.00000   0.00000   0.00022
  31 5   H  1S         -0.00000   0.00001   0.00000  -0.00000   0.00000
  32        2S         -0.00000   0.00004   0.00000   0.00000   0.00000
  33        3PX         0.00000   0.00000   0.00000  -0.00000   0.00000
  34        3PY         0.00000   0.00000   0.00000   0.00000   0.00000
  35        3PZ         0.00000   0.00000   0.00000  -0.00000  -0.00000
  36 6   H  1S         -0.00000   0.00000  -0.00000  -0.00000  -0.00000
  37        2S         -0.00000   0.00001  -0.00000  -0.00000  -0.00000
  38        3PX         0.00000  -0.00000  -0.00000   0.00000  -0.00000
  39        3PY        -0.00000   0.00000   0.00000  -0.00000   0.00000
  40        3PZ         0.00000  -0.00000  -0.00000   0.00000   0.00000
                          31        32        33        34        35
  31 5   H  1S          0.21015
  32        2S          0.11265   0.14731
  33        3PX         0.00000   0.00000   0.00000
  34        3PY         0.00000   0.00000   0.00000   0.00049
  35        3PZ         0.00000   0.00000   0.00000   0.00000   0.00000
  36 6   H  1S          0.09520   0.08640   0.00000   0.00473   0.00000
  37        2S          0.09132   0.11884   0.00000   0.00137   0.00000
  38        3PX         0.00000   0.00000  -0.00000   0.00000   0.00000
  39        3PY         0.00467   0.00126   0.00000   0.00019   0.00000
  40        3PZ         0.00000   0.00000   0.00000   0.00000  -0.00000
                          36        37        38        39        40
  36 6   H  1S          0.21131
  37        2S          0.11945   0.16026
  38        3PX         0.00000   0.00000   0.00000
  39        3PY         0.00000   0.00000   0.00000   0.00047
  40        3PZ         0.00000   0.00000   0.00000   0.00000   0.00000
     Gross orbital populations:
                         Total     Alpha     Beta      Spin
   1 1   C  1S          1.99168   0.99575   0.99594  -0.00019
   2        2S          0.70614   0.36569   0.34045   0.02524
   3        2PX         0.72461   0.37235   0.35226   0.02009
   4        2PY         0.53640   0.53607   0.00034   0.53573
   5        2PZ         0.72466   0.37230   0.35236   0.01994
   6        3S          0.66191   0.35977   0.30213   0.05764
   7        3PX         0.30067   0.15917   0.14149   0.01768
   8        3PY         0.44671   0.44598   0.00073   0.44526
   9        3PZ         0.30062   0.15908   0.14153   0.01755
  10        4XX        -0.00316  -0.00594   0.00278  -0.00872
  11        4YY        -0.02544  -0.00626  -0.01918   0.01292
  12        4ZZ        -0.00315  -0.00594   0.00279  -0.00873
  13        4XY         0.00002   0.00001   0.00001  -0.00001
  14        4XZ         0.00706   0.00355   0.00351   0.00004
  15        4YZ         0.00001   0.00000   0.00000  -0.00000
  16 2   H  1S          0.52630   0.25373   0.27257  -0.01884
  17        2S          0.33530   0.15157   0.18372  -0.03215
  18        3PX         0.00211   0.00102   0.00108  -0.00006
  19        3PY         0.00304   0.00304   0.00000   0.00304
  20        3PZ         0.00779   0.00396   0.00383   0.00013
  21 3   H  1S          0.52630   0.25373   0.27257  -0.01884
  22        2S          0.33529   0.15157   0.18372  -0.03215
  23        3PX         0.00637   0.00323   0.00314   0.00009
  24        3PY         0.00304   0.00304   0.00000   0.00304
  25        3PZ         0.00353   0.00176   0.00177  -0.00001
  26 4   H  1S          0.52631   0.25373   0.27257  -0.01884
  27        2S          0.33530   0.15158   0.18373  -0.03215
  28        3PX         0.00636   0.00323   0.00314   0.00009
  29        3PY         0.00305   0.00304   0.00001   0.00303
  30        3PZ         0.00353   0.00176   0.00177  -0.00001
  31 5   H  1S          0.51396   0.25678   0.25718  -0.00040
  32        2S          0.47375   0.23678   0.23697  -0.00020
  33        3PX         0.00000   0.00000   0.00000   0.00000
  34        3PY         0.00681   0.00347   0.00334   0.00014
  35        3PZ         0.00000   0.00000   0.00000   0.00000
  36 6   H  1S          0.51708   0.26016   0.25692   0.00324
  37        2S          0.48949   0.24796   0.24152   0.00644
  38        3PX         0.00000   0.00000   0.00000  -0.00000
  39        3PY         0.00659   0.00328   0.00330  -0.00002
  40        3PZ         0.00000   0.00000   0.00000  -0.00000
          Condensed to atoms (all electrons):
               1          2          3          4          5          6
     1  C    5.187285   0.392038   0.392037   0.392040   0.007130  -0.001808
     2  H    0.392038   0.544741  -0.031154  -0.031155   0.000054   0.000008
     3  H    0.392037  -0.031154   0.544737  -0.031156   0.000055   0.000008
     4  H    0.392040  -0.031155  -0.031156   0.544759   0.000047   0.000009
     5  H    0.007130   0.000054   0.000055   0.000047   0.583251   0.403983
     6  H   -0.001808   0.000008   0.000008   0.000009   0.403983   0.610950
          Atomic-Atomic Spin Densities.
               1          2          3          4          5          6
     1  C    1.142099  -0.004041  -0.004041  -0.004041   0.006417  -0.001955
     2  H   -0.004041  -0.045763   0.000966   0.000966  -0.000007   0.000001
     3  H   -0.004041   0.000966  -0.045763   0.000966  -0.000007   0.000001
     4  H   -0.004041   0.000966   0.000966  -0.045765  -0.000007   0.000001
     5  H    0.006417  -0.000007  -0.000007  -0.000007  -0.000394  -0.006463
     6  H   -0.001955   0.000001   0.000001   0.000001  -0.006463   0.018076
 Mulliken charges and spin densities:
               1          2
     1  C   -0.368722   1.134438
     2  H    0.125468  -0.047878
     3  H    0.125471  -0.047879
     4  H    0.125455  -0.047880
     5  H    0.005479  -0.000462
     6  H   -0.013151   0.009660
 Sum of Mulliken charges =  -0.00000   1.00000
 Mulliken charges and spin densities with hydrogens summed into heavy atoms:
               1          2
     1  C   -0.000000   1.000000
 Electronic spatial extent (au):  <R**2>=            120.5764
 Charge=             -0.0000 electrons
 Dipole moment (field-independent basis, Debye):
    X=              0.0026    Y=             -0.1783    Z=              0.0018  Tot=              0.1783
 Quadrupole moment (field-independent basis, Debye-Ang):
   XX=             -9.0295   YY=            -10.6056   ZZ=             -9.0289
   XY=              0.0334   XZ=             -0.0005   YZ=              0.0189
 Traceless Quadrupole moment (field-independent basis, Debye-Ang):
   XX=              0.5252   YY=             -1.0509   ZZ=              0.5258
   XY=              0.0334   XZ=             -0.0005   YZ=              0.0189
 Octapole moment (field-independent basis, Debye-Ang**2):
  XXX=              0.2808  YYY=            -17.8818  ZZZ=              1.0146  XYY=              0.0506
  XXY=             -7.0975  XXZ=             -0.7424  XZZ=              0.0933  YZZ=             -7.0782
  YYZ=              0.0342  XYZ=             -0.0165
 Hexadecapole moment (field-independent basis, Debye-Ang**3):
 XXXX=            -15.8881 YYYY=           -130.2764 ZZZZ=            -15.8761 XXXY=              0.9453
 XXXZ=             -0.0100 YYYX=              0.5360 YYYZ=              0.3865 ZZZX=             -0.0087
 ZZZY=              0.6775 XXYY=            -29.5043 XXZZ=             -5.2945 YYZZ=            -29.5058
 XXYZ=              0.2467 YYXZ=              0.0018 ZZXY=              0.3151
 N-N= 1.309624579761D+01 E-N=-1.201814416986D+02  KE= 4.058076573017D+01
 Orbital energies and kinetic energies (alpha):
                                 1                 2
   1         O               -10.195416         15.871154
   2         O                -0.683743          1.348789
   3         O                -0.426198          0.570454
   4         O                -0.418027          0.987830
   5         O                -0.418020          0.987817
   6         O                -0.227725          1.134444
   7         V                 0.102862          0.733851
   8         V                 0.119901          0.823226
   9         V                 0.180137          0.848238
  10         V                 0.180143          0.848247
  11         V                 0.513231          1.753556
  12         V                 0.536779          1.533897
  13         V                 0.536791          1.533861
  14         V                 0.606825          1.686545
  15         V                 0.718862          1.764999
  16         V                 0.887479          2.491906
  17         V                 0.887487          2.491933
  18         V                 0.940772          2.357243
  19         V                 1.110655          2.299490
  20         V                 1.433078          2.455066
  21         V                 1.433088          2.455076
  22         V                 1.680354          2.448574
  23         V                 1.680355          2.448575
  24         V                 1.911814          2.971320
  25         V                 1.911843          2.971348
  26         V                 1.961778          3.133358
  27         V                 2.004323          2.803327
  28         V                 2.291073          3.103805
  29         V                 2.383488          3.274088
  30         V                 2.557321          3.504812
  31         V                 2.557345          3.504840
  32         V                 2.620510          3.358838
  33         V                 2.620511          3.358832
  34         V                 2.715035          3.715587
  35         V                 2.715069          3.715640
  36         V                 3.246710          5.020173
  37         V                 3.454987          5.145894
  38         V                 3.455019          5.145938
  39         V                 4.155158          5.425545
  40         V                 4.283985          9.529920
 Orbital energies and kinetic energies (beta):
                                 1                 2
   1         O               -10.181530         15.893992
   2         O                -0.643075          1.280801
   3         O                -0.425539          0.570135
   4         O                -0.408084          0.967674
   5         O                -0.408077          0.967675
   6         V                -0.056706          0.917658
   7         V                 0.110454          0.671474
   8         V                 0.133644          0.939736
   9         V                 0.185536          0.848899
  10         V                 0.185542          0.848909
  11         V                 0.544462          1.527047
  12         V                 0.544509          1.526332
  13         V                 0.546801          1.598098
  14         V                 0.649703          1.976014
  15         V                 0.740092          1.817586
  16         V                 0.890940          2.512364
  17         V                 0.890949          2.512389
  18         V                 0.966488          2.385993
  19         V                 1.114761          2.299777
  20         V                 1.479185          2.444595
  21         V                 1.479194          2.444605
  22         V                 1.680764          2.448571
  23         V                 1.680765          2.448572
  24         V                 1.915307          2.965696
  25         V                 1.915335          2.965724
  26         V                 1.999245          2.803327
  27         V                 2.042500          3.119819
  28         V                 2.297667          3.106941
  29         V                 2.384135          3.274106
  30         V                 2.586462          3.515416
  31         V                 2.586487          3.515444
  32         V                 2.620939          3.358838
  33         V                 2.620940          3.358833
  34         V                 2.715442          3.720026
  35         V                 2.715477          3.720079
  36         V                 3.252987          4.988503
  37         V                 3.462632          5.153514
  38         V                 3.462663          5.153559
  39         V                 4.155952          5.418831
  40         V                 4.320158          9.570482
 Total kinetic energy from orbitals= 4.058076573017D+01
                          Isotropic Fermi Contact Couplings
        Atom                 a.u.       MegaHertz       Gauss      10(-4) cm-1
     1  C(13)              0.10730     120.62644      43.04251      40.23665
     2  H(1)              -0.01538     -68.74287     -24.52917     -22.93015
     3  H(1)              -0.01538     -68.74556     -24.53012     -22.93105
     4  H(1)              -0.01538     -68.74379     -24.52949     -22.93046
     5  H(1)              -0.00026      -1.16577      -0.41598      -0.38886
     6  H(1)               0.00273      12.21942       4.36019       4.07596
 --------------------------------------------------------
       Center         ----  Spin Dipole Couplings  ----
                      3XX-RR        3YY-RR        3ZZ-RR
 --------------------------------------------------------
     1   Atom       -0.538027      1.076525     -0.538498
     2   Atom       -0.074586     -0.001532      0.076118
     3   Atom        0.038466     -0.001530     -0.036936
     4   Atom        0.038347     -0.001406     -0.036942
     5   Atom       -0.007955      0.015911     -0.007956
     6   Atom       -0.003144      0.006289     -0.003145
 --------------------------------------------------------
                        XY            XZ            YZ
 --------------------------------------------------------
     1   Atom       -0.033759      0.000408     -0.019488
     2   Atom       -0.001526     -0.000002      0.000026
     3   Atom       -0.000739     -0.065242     -0.001335
     4   Atom        0.002414      0.065235      0.001394
     5   Atom       -0.000290      0.000003     -0.000222
     6   Atom       -0.000116      0.000001     -0.000088
 --------------------------------------------------------


 ---------------------------------------------------------------------------------
              Anisotropic Spin Dipole Couplings in Principal Axis System
 ---------------------------------------------------------------------------------

       Atom             a.u.   MegaHertz   Gauss  10(-4) cm-1        Axes

              Baa    -0.5387   -72.293   -25.796   -24.114 -0.4748  0.0007  0.8801
     1 C(13)  Bbb    -0.5387   -72.293   -25.796   -24.114  0.8799  0.0241  0.4746
              Bcc     1.0775   144.586    51.592    48.229 -0.0209  0.9997 -0.0121
 
              Baa    -0.0746   -39.813   -14.206   -13.280  0.9998  0.0209  0.0000
     2 H(1)   Bbb    -0.0015    -0.800    -0.286    -0.267 -0.0209  0.9998 -0.0003
              Bcc     0.0761    40.613    14.492    13.547 -0.0000  0.0003  1.0000
 
              Baa    -0.0746   -39.813   -14.206   -13.280  0.4997  0.0209  0.8659
     3 H(1)   Bbb    -0.0015    -0.799    -0.285    -0.267 -0.0107  0.9998 -0.0179
              Bcc     0.0761    40.612    14.491    13.547  0.8661  0.0004 -0.4998
 
              Baa    -0.0746   -39.811   -14.206   -13.280 -0.5001 -0.0000  0.8660
     4 H(1)   Bbb    -0.0015    -0.803    -0.287    -0.268 -0.0311  0.9994 -0.0180
              Bcc     0.0761    40.614    14.492    13.547  0.8654  0.0359  0.4998
 
              Baa    -0.0080    -4.246    -1.515    -1.416 -0.5834  0.0004  0.8122
     5 H(1)   Bbb    -0.0080    -4.246    -1.515    -1.416  0.8121  0.0153  0.5833
              Bcc     0.0159     8.492     3.030     2.833 -0.0122  0.9999 -0.0093
 
              Baa    -0.0031    -1.679    -0.599    -0.560 -0.5856  0.0004  0.8106
     6 H(1)   Bbb    -0.0031    -1.678    -0.599    -0.560  0.8105  0.0154  0.5855
              Bcc     0.0063     3.357     1.198     1.120 -0.0122  0.9999 -0.0094
 

 ---------------------------------------------------------------------------------

 No NMR shielding tensors so no spin-rotation constants.
 Leave Link  601 at Fri Sep 13 17:54:20 2024, MaxMem=   268435456 cpu:         2.3
 (Enter /g100_work/pMI24_ChiCa/g09d1/g09d01/d01/build-node-6-2-59348/src/main/l9999.exe)
 1\1\GINC-R500N001\Scan\UB3LYP\6-31G(d,p)\C1H5(2)\ECABIATI\13-Sep-2024\
 1\\#p B3LYP/6-31g(d,p) opt=Z-Matrix nosym temperature=300 pop=full gfi
 nput\\ch4+h to ch3+h2 pushing hc5\\0,2\C\H,1,hc2\H,1,hc3,2,hch3\H,1,hc
 4,2,hch4,3,dih4,0\H,1,hc5,2,hch5,3,dih5,0\X,5,xxh6,1,xxhc6,4,dih6,0\H,
 5,hh7,6,hhxx7,1,dih7,0\\hc2=1.08196291\hc3=1.08196268\hch3=119.9881304
 8\hc4=1.08196139\hch4=119.98489247\dih4=177.60860069\hc5=3.0929,s,20,0
 .1\hch5=90.54730469\dih5=-90.76079459\xxh6=1.0317,s,-1000,0.\xxhc6=89.
 4183,s,-1000,0.\dih6=124.415,s,-1000,0.\hh7=0.74365654\hhxx7=90.596780
 85\dih7=180.05538446\\Version=EM64L-G09RevD.01\HF=-41.0244987,-41.0193
 922,-41.0111951,-41.0095139,-41.0099804,-41.0115088,-41.013431,-41.015
 3524,-41.0170672,-41.0184953,-41.0196293,-41.0204943,-41.0211293,-41.0
 215775,-41.0218785,-41.0220666,-41.022172,-41.0222162,-41.0222172,-41.
 0221896,-41.0221423\S2=0.750033,0.750094,0.757251,0.758098,0.757514,0.
 756553,0.755645,0.754931,0.754436,0.75411,0.7539,0.753768,0.753683,0.7
 5363,0.753598,0.753579,0.753568,0.753563,0.753562,0.753564,0.753567\S2
 -1=0.,0.,0.,0.,0.,0.,0.,0.,0.,0.,0.,0.,0.,0.,0.,0.,0.,0.,0.,0.,0.\S2A=
 0.75,0.75,0.750009,0.750019,0.750024,0.750024,0.750021,0.750018,0.7500
 14,0.750012,0.75001,0.750009,0.750008,0.750007,0.750007,0.750007,0.750
 007,0.750007,0.750007,0.750007,0.750007\RMSD=9.113e-09,4.426e-09,7.387
 e-09,2.602e-09,6.007e-09,3.070e-09,6.856e-09,4.067e-09,6.033e-09,4.988
 e-09,2.812e-09,5.430e-09,1.668e-09,5.936e-09,6.434e-09,3.031e-09,6.879
 e-09,6.144e-09,4.348e-09,3.455e-09,2.535e-09\PG=C01 [X(C1H5)]\\@


 I think that all right-thinking people in this
 country are sick and tired of being told that
 ordinary, decent people are fed up in this country
 with being sick and tired.  I'm certainly not!
 But I'm sick and tired of being told that I am!
                               -- Monty Python
 Job cpu time:       0 days  0 hours 17 minutes 19.8 seconds.
 File lengths (MBytes):  RWF=      5 Int=      0 D2E=      0 Chk=      2 Scr=      1
 Normal termination of Gaussian 09 at Fri Sep 13 17:54:20 2024.
