 Entering Gaussian System, Link 0=/g100_work/pMI24_ChiCa/g09d1/g09d01/d01/build-node-6-2-59348/src/main/g09
 Input=geom.com
 Output=geom.log
 Initial command:
 /g100_work/pMI24_ChiCa/g09d1/g09d01/d01/build-node-6-2-59348/src/main/l1.exe "/g100_scratch/userexternal/ecabiati/g16_14420039/Gau-4811.inp" -scrdir="/g100_scratch/userexternal/ecabiati/g16_14420039/"
 Entering Link 1 = /g100_work/pMI24_ChiCa/g09d1/g09d01/d01/build-node-6-2-59348/src/main/l1.exe PID=      4812.
  
 Copyright (c) 1988,1990,1992,1993,1995,1998,2003,2009,2013,
            Gaussian, Inc.  All Rights Reserved.
  
 This is part of the Gaussian(R) 09 program.  It is based on
 the Gaussian(R) 03 system (copyright 2003, Gaussian, Inc.),
 the Gaussian(R) 98 system (copyright 1998, Gaussian, Inc.),
 the Gaussian(R) 94 system (copyright 1995, Gaussian, Inc.),
 the Gaussian 92(TM) system (copyright 1992, Gaussian, Inc.),
 the Gaussian 90(TM) system (copyright 1990, Gaussian, Inc.),
 the Gaussian 88(TM) system (copyright 1988, Gaussian, Inc.),
 the Gaussian 86(TM) system (copyright 1986, Carnegie Mellon
 University), and the Gaussian 82(TM) system (copyright 1983,
 Carnegie Mellon University). Gaussian is a federally registered
 trademark of Gaussian, Inc.
  
 This software contains proprietary and confidential information,
 including trade secrets, belonging to Gaussian, Inc.
  
 This software is provided under written license and may be
 used, copied, transmitted, or stored only in accord with that
 written license.
  
 The following legend is applicable only to US Government
 contracts under FAR:
  
                    RESTRICTED RIGHTS LEGEND
  
 Use, reproduction and disclosure by the US Government is
 subject to restrictions as set forth in subparagraphs (a)
 and (c) of the Commercial Computer Software - Restricted
 Rights clause in FAR 52.227-19.
  
 Gaussian, Inc.
 340 Quinnipiac St., Bldg. 40, Wallingford CT 06492
  
  
 ---------------------------------------------------------------
 Warning -- This program may not be used in any manner that
 competes with the business of Gaussian, Inc. or will provide
 assistance to any competitor of Gaussian, Inc.  The licensee
 of this program is prohibited from giving any competitor of
 Gaussian, Inc. access to this program.  By using this program,
 the user acknowledges that Gaussian, Inc. is engaged in the
 business of creating and licensing software in the field of
 computational chemistry and represents and warrants to the
 licensee that it is not a competitor of Gaussian, Inc. and that
 it will not use this program in any manner prohibited above.
 ---------------------------------------------------------------
  

 Cite this work as:
 Gaussian 09, Revision D.01,
 M. J. Frisch, G. W. Trucks, H. B. Schlegel, G. E. Scuseria, 
 M. A. Robb, J. R. Cheeseman, G. Scalmani, V. Barone, B. Mennucci, 
 G. A. Petersson, H. Nakatsuji, M. Caricato, X. Li, H. P. Hratchian, 
 A. F. Izmaylov, J. Bloino, G. Zheng, J. L. Sonnenberg, M. Hada, 
 M. Ehara, K. Toyota, R. Fukuda, J. Hasegawa, M. Ishida, T. Nakajima, 
 Y. Honda, O. Kitao, H. Nakai, T. Vreven, J. A. Montgomery, Jr., 
 J. E. Peralta, F. Ogliaro, M. Bearpark, J. J. Heyd, E. Brothers, 
 K. N. Kudin, V. N. Staroverov, T. Keith, R. Kobayashi, J. Normand, 
 K. Raghavachari, A. Rendell, J. C. Burant, S. S. Iyengar, J. Tomasi, 
 M. Cossi, N. Rega, J. M. Millam, M. Klene, J. E. Knox, J. B. Cross, 
 V. Bakken, C. Adamo, J. Jaramillo, R. Gomperts, R. E. Stratmann, 
 O. Yazyev, A. J. Austin, R. Cammi, C. Pomelli, J. W. Ochterski, 
 R. L. Martin, K. Morokuma, V. G. Zakrzewski, G. A. Voth, 
 P. Salvador, J. J. Dannenberg, S. Dapprich, A. D. Daniels, 
 O. Farkas, J. B. Foresman, J. V. Ortiz, J. Cioslowski, 
 and D. J. Fox, Gaussian, Inc., Wallingford CT, 2013.
 
 ******************************************
 Gaussian 09:  EM64L-G09RevD.01 24-Apr-2013
                17-Sep-2024 
 ******************************************
 %nproc=24
 Will use up to   24 processors via shared memory.
 %mem=2Gb
 -----------------------------
 #p B3LYP/6-31+g(d,p) opt freq
 -----------------------------
 1/14=-1,18=20,19=15,26=3,38=1/1,3;
 2/9=110,12=2,17=6,18=5,40=1/2;
 3/5=1,6=6,7=111,11=2,16=1,25=1,30=1,71=1,74=-5/1,2,3;
 4//1;
 5/5=2,38=5/2;
 6/7=2,8=2,9=2,10=2,28=1/1;
 7//1,2,3,16;
 1/14=-1,18=20,19=15,26=3/3(2);
 2/9=110/2;
 99//99;
 2/9=110/2;
 3/5=1,6=6,7=111,11=2,16=1,25=1,30=1,71=1,74=-5/1,2,3;
 4/5=5,16=3,69=1/1;
 5/5=2,38=5/2;
 7//1,2,3,16;
 1/14=-1,18=20,19=15,26=3/3(-5);
 2/9=110/2;
 6/7=2,8=2,9=2,10=2,19=2,28=1/1;
 99/9=1/99;
 Leave Link    1 at Tue Sep 17 19:29:41 2024, MaxMem=   268435456 cpu:         0.1
 (Enter /g100_work/pMI24_ChiCa/g09d1/g09d01/d01/build-node-6-2-59348/src/main/l101.exe)
 -----------
 ch3coo- gas
 -----------
 Symbolic Z-matrix:
 Charge = -1 Multiplicity = 1
 c
 o                    1    oc2
 o                    1    oc3      2    oco3
 c                    1    cc4      3    cco4     2    dih4     0
 h                    4    hc5      1    hcc5     3    dih5     0
 h                    4    hc6      1    hcc6     5    dih6     0
 h                    4    hc7      1    hcc7     5    dih7     0
       Variables:
  oc2                   1.4                      
  oc3                   1.22                     
  oco3                120.                       
  cc4                   1.5                      
  cco4                120.                       
  dih4                180.                       
  hc5                   1.07                     
  hcc5                109.471                    
  dih5                180.                       
  hc6                   1.07                     
  hcc6                109.471                    
  dih6                120.                       
  hc7                   1.07                     
  hcc7                109.471                    
  dih7                240.                       
 
     3 tetrahedral angles replaced.
 NAtoms=      7 NQM=        7 NQMF=       0 NMMI=      0 NMMIF=      0
                NMic=       0 NMicF=      0.
                    Isotopes and Nuclear Properties:
 (Nuclear quadrupole moments (NQMom) in fm**2, nuclear magnetic moments (NMagM)
  in nuclear magnetons)

  Atom         1           2           3           4           5           6           7
 IAtWgt=          12          16          16          12           1           1           1
 AtmWgt=  12.0000000  15.9949146  15.9949146  12.0000000   1.0078250   1.0078250   1.0078250
 NucSpn=           0           0           0           0           1           1           1
 AtZEff=   0.0000000   0.0000000   0.0000000   0.0000000   0.0000000   0.0000000   0.0000000
 NQMom=    0.0000000   0.0000000   0.0000000   0.0000000   0.0000000   0.0000000   0.0000000
 NMagM=    0.0000000   0.0000000   0.0000000   0.0000000   2.7928460   2.7928460   2.7928460
 AtZNuc=   6.0000000   8.0000000   8.0000000   6.0000000   1.0000000   1.0000000   1.0000000
 Leave Link  101 at Tue Sep 17 19:29:41 2024, MaxMem=   268435456 cpu:         0.2
 (Enter /g100_work/pMI24_ChiCa/g09d1/g09d01/d01/build-node-6-2-59348/src/main/l103.exe)

 GradGradGradGradGradGradGradGradGradGradGradGradGradGradGradGradGradGrad
 Berny optimization.
 Initialization pass.
                           ----------------------------
                           !    Initial Parameters    !
                           ! (Angstroms and Degrees)  !
 --------------------------                            --------------------------
 ! Name  Definition              Value          Derivative Info.                !
 --------------------------------------------------------------------------------
 ! R1    R(1,2)                  1.4            estimate D2E/DX2                !
 ! R2    R(1,3)                  1.22           estimate D2E/DX2                !
 ! R3    R(1,4)                  1.5            estimate D2E/DX2                !
 ! R4    R(4,5)                  1.07           estimate D2E/DX2                !
 ! R5    R(4,6)                  1.07           estimate D2E/DX2                !
 ! R6    R(4,7)                  1.07           estimate D2E/DX2                !
 ! A1    A(2,1,3)              120.0            estimate D2E/DX2                !
 ! A2    A(2,1,4)              120.0            estimate D2E/DX2                !
 ! A3    A(3,1,4)              120.0            estimate D2E/DX2                !
 ! A4    A(1,4,5)              109.4712         estimate D2E/DX2                !
 ! A5    A(1,4,6)              109.4712         estimate D2E/DX2                !
 ! A6    A(1,4,7)              109.4712         estimate D2E/DX2                !
 ! A7    A(5,4,6)              109.4712         estimate D2E/DX2                !
 ! A8    A(5,4,7)              109.4712         estimate D2E/DX2                !
 ! A9    A(6,4,7)              109.4712         estimate D2E/DX2                !
 ! D1    D(2,1,4,5)              0.0            estimate D2E/DX2                !
 ! D2    D(2,1,4,6)            120.0            estimate D2E/DX2                !
 ! D3    D(2,1,4,7)           -120.0            estimate D2E/DX2                !
 ! D4    D(3,1,4,5)            180.0            estimate D2E/DX2                !
 ! D5    D(3,1,4,6)            -60.0            estimate D2E/DX2                !
 ! D6    D(3,1,4,7)             60.0            estimate D2E/DX2                !
 --------------------------------------------------------------------------------
 Trust Radius=3.00D-01 FncErr=1.00D-07 GrdErr=1.00D-06
 Number of steps in this run=     31 maximum allowed number of steps=    100.
 GradGradGradGradGradGradGradGradGradGradGradGradGradGradGradGradGradGrad

 Leave Link  103 at Tue Sep 17 19:29:41 2024, MaxMem=   268435456 cpu:         0.1
 (Enter /g100_work/pMI24_ChiCa/g09d1/g09d01/d01/build-node-6-2-59348/src/main/l202.exe)
                          Input orientation:                          
 ---------------------------------------------------------------------
 Center     Atomic      Atomic             Coordinates (Angstroms)
 Number     Number       Type             X           Y           Z
 ---------------------------------------------------------------------
      1          6           0        0.000000    0.000000    0.000000
      2          8           0        0.000000    0.000000    1.400000
      3          8           0        1.056551    0.000000   -0.610000
      4          6           0       -1.299038    0.000000   -0.750000
      5          1           0       -2.112323    0.000000   -0.054682
      6          1           0       -1.355719    0.873651   -1.365159
      7          1           0       -1.355719   -0.873651   -1.365159
 ---------------------------------------------------------------------
                    Distance matrix (angstroms):
                    1          2          3          4          5
     1  C    0.000000
     2  O    1.400000   0.000000
     3  O    1.220000   2.270771   0.000000
     4  C    1.500000   2.511971   2.359746   0.000000
     5  H    2.113031   2.564763   3.217164   1.070000   0.000000
     6  H    2.113031   3.201147   2.674431   1.070000   1.747303
     7  H    2.113031   3.201147   2.674431   1.070000   1.747303
                    6          7
     6  H    0.000000
     7  H    1.747303   0.000000
 Stoichiometry    C2H3O2(1-)
 Framework group  CS[SG(C2HO2),X(H2)]
 Deg. of freedom    10
 Full point group                 CS      NOp   2
 Largest Abelian subgroup         CS      NOp   2
 Largest concise Abelian subgroup CS      NOp   2
                         Standard orientation:                         
 ---------------------------------------------------------------------
 Center     Atomic      Atomic             Coordinates (Angstroms)
 Number     Number       Type             X           Y           Z
 ---------------------------------------------------------------------
      1          6           0        0.000000    0.137932   -0.000000
      2          8           0        1.363881    0.453889   -0.000000
      3          8           0       -0.832709    1.029558   -0.000000
      4          6           0       -0.437479   -1.296854    0.000000
      5          1           0        0.423446   -1.932235    0.000000
      6          1           0       -1.023975   -1.490904    0.873651
      7          1           0       -1.023975   -1.490904   -0.873651
 ---------------------------------------------------------------------
 Rotational constants (GHZ):     11.7157287      9.3879396      5.3825204
 Leave Link  202 at Tue Sep 17 19:29:41 2024, MaxMem=   268435456 cpu:         0.2
 (Enter /g100_work/pMI24_ChiCa/g09d1/g09d01/d01/build-node-6-2-59348/src/main/l301.exe)
 Standard basis: 6-31+G(d,p) (6D, 7F)
 Ernie: Thresh=  0.10000D-02 Tol=  0.10000D-05 Strict=F.
 There are    65 symmetry adapted cartesian basis functions of A'  symmetry.
 There are    26 symmetry adapted cartesian basis functions of A"  symmetry.
 There are    65 symmetry adapted basis functions of A'  symmetry.
 There are    26 symmetry adapted basis functions of A"  symmetry.
    91 basis functions,   149 primitive gaussians,    91 cartesian basis functions
    16 alpha electrons       16 beta electrons
       nuclear repulsion energy       110.5496121988 Hartrees.
 IExCor=  402 DFT=T Ex+Corr=B3LYP ExCW=0 ScaHFX=  0.200000
 ScaDFX=  0.800000  0.720000  1.000000  0.810000 ScalE2=  1.000000  1.000000
 IRadAn=      0 IRanWt=     -1 IRanGd=            0 ICorTp=0 IEmpDi=  4
 NAtoms=    7 NActive=    7 NUniq=    6 SFac= 1.36D+00 NAtFMM=   60 NAOKFM=F Big=F
 Integral buffers will be    131072 words long.
 Raffenetti 2 integral format.
 Two-electron integral symmetry is turned on.
 Leave Link  301 at Tue Sep 17 19:29:41 2024, MaxMem=   268435456 cpu:         0.1
 (Enter /g100_work/pMI24_ChiCa/g09d1/g09d01/d01/build-node-6-2-59348/src/main/l302.exe)
 NPDir=0 NMtPBC=     1 NCelOv=     1 NCel=       1 NClECP=     1 NCelD=      1
         NCelK=      1 NCelE2=     1 NClLst=     1 CellRange=     0.0.
 One-electron integrals computed using PRISM.
 One-electron integral symmetry used in STVInt
 NBasis=    91 RedAO= T EigKep=  3.31D-04  NBF=    65    26
 NBsUse=    91 1.00D-06 EigRej= -1.00D+00 NBFU=    65    26
 Precomputing XC quadrature grid using
 IXCGrd= 4 IRadAn=           0 IRanWt=          -1 IRanGd=           0 AccXCQ= 0.00D+00.
 Generated NRdTot=       0 NPtTot=           0 NUsed=           0 NTot=          32
 NSgBfM=    91    91    91    91    91 MxSgAt=     7 MxSgA2=     7.
 Leave Link  302 at Tue Sep 17 19:29:41 2024, MaxMem=   268435456 cpu:         1.4
 (Enter /g100_work/pMI24_ChiCa/g09d1/g09d01/d01/build-node-6-2-59348/src/main/l303.exe)
 DipDrv:  MaxL=1.
 Leave Link  303 at Tue Sep 17 19:29:41 2024, MaxMem=   268435456 cpu:         0.2
 (Enter /g100_work/pMI24_ChiCa/g09d1/g09d01/d01/build-node-6-2-59348/src/main/l401.exe)
 ExpMin= 4.38D-02 ExpMax= 5.48D+03 ExpMxC= 8.25D+02 IAcc=2 IRadAn=         4 AccDes= 0.00D+00
 Harris functional with IExCor=  402 and IRadAn=       4 diagonalized for initial guess.
 HarFok:  IExCor=  402 AccDes= 0.00D+00 IRadAn=         4 IDoV= 1 UseB2=F ITyADJ=14
 ICtDFT=  3500011 ScaDFX=  1.000000  1.000000  1.000000  1.000000
 FoFCou: FMM=F IPFlag=           0 FMFlag=      100000 FMFlg1=           0
         NFxFlg=           0 DoJE=T BraDBF=F KetDBF=T FulRan=T
         wScrn=  0.000000 ICntrl=     500 IOpCl=  0 I1Cent=   200000004 NGrid=           0
         NMat0=    1 NMatS0=      1 NMatT0=    0 NMatD0=    1 NMtDS0=    0 NMtDT0=    0
 Petite list used in FoFCou.
 Harris En= -228.742589596295    
 JPrj=0 DoOrth=F DoCkMO=F.
 Initial guess orbital symmetries:
       Occupied  (A') (A') (A') (A') (A') (A') (A') (A') (A') (A")
                 (A') (A') (A") (A') (A") (A')
       Virtual   (A") (A') (A') (A') (A") (A') (A') (A") (A') (A")
                 (A') (A') (A') (A") (A') (A') (A') (A') (A") (A')
                 (A') (A') (A') (A') (A") (A') (A") (A') (A') (A")
                 (A') (A') (A') (A') (A") (A") (A') (A') (A') (A")
                 (A') (A") (A') (A') (A") (A') (A') (A') (A") (A')
                 (A") (A') (A") (A') (A") (A') (A") (A') (A') (A")
                 (A') (A") (A') (A') (A") (A') (A') (A') (A') (A")
                 (A') (A') (A') (A') (A')
 The electronic state of the initial guess is 1-A'.
 Leave Link  401 at Tue Sep 17 19:29:42 2024, MaxMem=   268435456 cpu:         1.4
 (Enter /g100_work/pMI24_ChiCa/g09d1/g09d01/d01/build-node-6-2-59348/src/main/l502.exe)
 Closed shell SCF:
 Using DIIS extrapolation, IDIIS=  1040.
 Integral symmetry usage will be decided dynamically.
 Keep R1 ints in memory in symmetry-blocked form, NReq=13364509.
 IVT=       46381 IEndB=       46381 NGot=   268435456 MDV=   263834430
 LenX=   263834430 LenY=   263825708
 Requested convergence on RMS density matrix=1.00D-08 within 128 cycles.
 Requested convergence on MAX density matrix=1.00D-06.
 Requested convergence on             energy=1.00D-06.
 No special actions if energy rises.
 FoFCou: FMM=F IPFlag=           0 FMFlag=           0 FMFlg1=           0
         NFxFlg=           0 DoJE=F BraDBF=F KetDBF=F FulRan=T
         wScrn=  0.000000 ICntrl=     600 IOpCl=  0 I1Cent=           0 NGrid=           0
         NMat0=    1 NMatS0=   4186 NMatT0=    0 NMatD0=    1 NMtDS0=    0 NMtDT0=    0
 Petite list used in FoFCou.

 Cycle   1  Pass 1  IDiag  1:
 E= -228.290892518694    
 DIIS: error= 5.13D-02 at cycle   1 NSaved=   1.
 NSaved= 1 IEnMin= 1 EnMin= -228.290892518694     IErMin= 1 ErrMin= 5.13D-02
 ErrMax= 5.13D-02  0.00D+00 EMaxC= 1.00D-01 BMatC= 2.57D-01 BMatP= 2.57D-01
 IDIUse=3 WtCom= 4.87D-01 WtEn= 5.13D-01
 Coeff-Com:  0.100D+01
 Coeff-En:   0.100D+01
 Coeff:      0.100D+01
 Gap=    -0.034 Goal=   None    Shift=    0.000
 GapD=   -0.034 DampG=0.250 DampE=0.500 DampFc=0.2500 IDamp=-1.
 Damping current iteration by 2.50D-01
 RMSDP=1.14D+00 MaxDP=5.68D+01              OVMax= 8.92D-01

 Cycle   2  Pass 1  IDiag  1:
 E= -228.287095273252     Delta-E=        0.003797245442 Rises=F Damp=T
 DIIS: error= 1.53D-02 at cycle   2 NSaved=   2.
 NSaved= 2 IEnMin= 1 EnMin= -228.290892518694     IErMin= 2 ErrMin= 1.53D-02
 ErrMax= 1.53D-02  0.00D+00 EMaxC= 1.00D-01 BMatC= 3.51D-02 BMatP= 2.57D-01
 IDIUse=3 WtCom= 8.47D-01 WtEn= 1.53D-01
 Coeff-Com: -0.542D-01 0.105D+01
 Coeff-En:   0.511D+00 0.489D+00
 Coeff:      0.325D-01 0.968D+00
 Gap=    -0.114 Goal=   None    Shift=    0.000
 RMSDP=2.84D-01 MaxDP=1.42D+01 DE= 3.80D-03 OVMax= 8.48D-01

 Cycle   3  Pass 1  IDiag  1:
 E= -228.363850621142     Delta-E=       -0.076755347891 Rises=F Damp=F
 DIIS: error= 4.93D-02 at cycle   3 NSaved=   3.
 NSaved= 3 IEnMin= 3 EnMin= -228.363850621142     IErMin= 2 ErrMin= 1.53D-02
 ErrMax= 4.93D-02  0.00D+00 EMaxC= 1.00D-01 BMatC= 1.77D-01 BMatP= 3.51D-02
 IDIUse=2 WtCom= 0.00D+00 WtEn= 1.00D+00
 EnCoef did     2 forward-backward iterations
 Coeff-En:   0.143D+00 0.268D+00 0.589D+00
 Coeff:      0.143D+00 0.268D+00 0.589D+00
 Gap=     0.196 Goal=   None    Shift=    0.000
 RMSDP=7.39D-02 MaxDP=2.79D+00 DE=-7.68D-02 OVMax= 3.93D-01

 Cycle   4  Pass 1  IDiag  1:
 E= -228.144287979087     Delta-E=        0.219562642055 Rises=F Damp=F
 DIIS: error= 7.71D-02 at cycle   4 NSaved=   4.
 NSaved= 4 IEnMin= 3 EnMin= -228.363850621142     IErMin= 2 ErrMin= 1.53D-02
 ErrMax= 7.71D-02  0.00D+00 EMaxC= 1.00D-01 BMatC= 4.45D-01 BMatP= 3.51D-02
 IDIUse=2 WtCom= 0.00D+00 WtEn= 1.00D+00
 EnCoef did     2 forward-backward iterations
 Coeff-En:   0.662D-01 0.000D+00 0.605D+00 0.329D+00
 Coeff:      0.662D-01 0.000D+00 0.605D+00 0.329D+00
 Gap=     0.119 Goal=   None    Shift=    0.000
 RMSDP=7.12D-02 MaxDP=2.76D+00 DE= 2.20D-01 OVMax= 2.36D-01

 Cycle   5  Pass 1  IDiag  1:
 E= -228.508936196986     Delta-E=       -0.364648217899 Rises=F Damp=F
 DIIS: error= 9.65D-03 at cycle   5 NSaved=   5.
 NSaved= 5 IEnMin= 5 EnMin= -228.508936196986     IErMin= 5 ErrMin= 9.65D-03
 ErrMax= 9.65D-03  0.00D+00 EMaxC= 1.00D-01 BMatC= 1.53D-02 BMatP= 3.51D-02
 IDIUse=3 WtCom= 9.03D-01 WtEn= 9.65D-02
 Coeff-Com: -0.763D-01 0.156D+00 0.269D+00 0.621D-01 0.588D+00
 Coeff-En:   0.000D+00 0.000D+00 0.304D-01 0.000D+00 0.970D+00
 Coeff:     -0.690D-01 0.141D+00 0.246D+00 0.561D-01 0.625D+00
 Gap=     0.168 Goal=   None    Shift=    0.000
 RMSDP=2.68D-03 MaxDP=5.51D-02 DE=-3.65D-01 OVMax= 3.08D-02

 Cycle   6  Pass 1  IDiag  1:
 E= -228.519852025244     Delta-E=       -0.010915828258 Rises=F Damp=F
 DIIS: error= 3.69D-03 at cycle   6 NSaved=   6.
 NSaved= 6 IEnMin= 6 EnMin= -228.519852025244     IErMin= 6 ErrMin= 3.69D-03
 ErrMax= 3.69D-03  0.00D+00 EMaxC= 1.00D-01 BMatC= 2.04D-03 BMatP= 1.53D-02
 IDIUse=3 WtCom= 9.63D-01 WtEn= 3.69D-02
 Coeff-Com: -0.727D-01 0.695D-01 0.406D-01-0.742D-02 0.341D+00 0.629D+00
 Coeff-En:   0.000D+00 0.000D+00 0.000D+00 0.000D+00 0.767D-01 0.923D+00
 Coeff:     -0.701D-01 0.670D-01 0.391D-01-0.715D-02 0.331D+00 0.640D+00
 Gap=     0.155 Goal=   None    Shift=    0.000
 RMSDP=5.70D-04 MaxDP=7.70D-03 DE=-1.09D-02 OVMax= 1.06D-02

 Cycle   7  Pass 1  IDiag  1:
 E= -228.521888814897     Delta-E=       -0.002036789653 Rises=F Damp=F
 DIIS: error= 1.03D-03 at cycle   7 NSaved=   7.
 NSaved= 7 IEnMin= 7 EnMin= -228.521888814897     IErMin= 7 ErrMin= 1.03D-03
 ErrMax= 1.03D-03  0.00D+00 EMaxC= 1.00D-01 BMatC= 1.16D-04 BMatP= 2.04D-03
 IDIUse=3 WtCom= 9.90D-01 WtEn= 1.03D-02
 Coeff-Com: -0.243D-01 0.356D-01-0.282D-02-0.754D-03 0.341D-01 0.748D-01
 Coeff-Com:  0.883D+00
 Coeff-En:   0.000D+00 0.000D+00 0.000D+00 0.000D+00 0.000D+00 0.000D+00
 Coeff-En:   0.100D+01
 Coeff:     -0.240D-01 0.352D-01-0.279D-02-0.746D-03 0.337D-01 0.740D-01
 Coeff:      0.885D+00
 Gap=     0.154 Goal=   None    Shift=    0.000
 RMSDP=1.22D-04 MaxDP=2.72D-03 DE=-2.04D-03 OVMax= 2.00D-03

 Cycle   8  Pass 1  IDiag  1:
 E= -228.521951901608     Delta-E=       -0.000063086711 Rises=F Damp=F
 DIIS: error= 8.71D-04 at cycle   8 NSaved=   8.
 NSaved= 8 IEnMin= 8 EnMin= -228.521951901608     IErMin= 8 ErrMin= 8.71D-04
 ErrMax= 8.71D-04  0.00D+00 EMaxC= 1.00D-01 BMatC= 5.38D-05 BMatP= 1.16D-04
 IDIUse=3 WtCom= 9.91D-01 WtEn= 8.71D-03
 Coeff-Com: -0.161D-02 0.105D-02-0.117D-01 0.476D-02-0.376D-01-0.940D-01
 Coeff-Com:  0.403D+00 0.736D+00
 Coeff-En:   0.000D+00 0.000D+00 0.000D+00 0.000D+00 0.000D+00 0.000D+00
 Coeff-En:   0.000D+00 0.100D+01
 Coeff:     -0.160D-02 0.104D-02-0.116D-01 0.472D-02-0.373D-01-0.932D-01
 Coeff:      0.400D+00 0.738D+00
 Gap=     0.152 Goal=   None    Shift=    0.000
 RMSDP=1.47D-04 MaxDP=1.77D-03 DE=-6.31D-05 OVMax= 3.14D-03

 Cycle   9  Pass 1  IDiag  1:
 E= -228.522006363489     Delta-E=       -0.000054461881 Rises=F Damp=F
 DIIS: error= 3.89D-05 at cycle   9 NSaved=   9.
 NSaved= 9 IEnMin= 9 EnMin= -228.522006363489     IErMin= 9 ErrMin= 3.89D-05
 ErrMax= 3.89D-05  0.00D+00 EMaxC= 1.00D-01 BMatC= 1.74D-07 BMatP= 5.38D-05
 IDIUse=1 WtCom= 1.00D+00 WtEn= 0.00D+00
 Coeff-Com:  0.700D-04 0.116D-03-0.167D-02 0.781D-03-0.491D-02-0.145D-01
 Coeff-Com:  0.156D-01 0.151D+00 0.854D+00
 Coeff:      0.700D-04 0.116D-03-0.167D-02 0.781D-03-0.491D-02-0.145D-01
 Coeff:      0.156D-01 0.151D+00 0.854D+00
 Gap=     0.152 Goal=   None    Shift=    0.000
 RMSDP=1.35D-05 MaxDP=3.26D-04 DE=-5.45D-05 OVMax= 1.34D-04

 Cycle  10  Pass 1  IDiag  1:
 E= -228.522006532931     Delta-E=       -0.000000169442 Rises=F Damp=F
 DIIS: error= 1.07D-05 at cycle  10 NSaved=  10.
 NSaved=10 IEnMin=10 EnMin= -228.522006532931     IErMin=10 ErrMin= 1.07D-05
 ErrMax= 1.07D-05  0.00D+00 EMaxC= 1.00D-01 BMatC= 5.07D-09 BMatP= 1.74D-07
 IDIUse=1 WtCom= 1.00D+00 WtEn= 0.00D+00
 Coeff-Com: -0.244D-04 0.111D-03 0.100D-03-0.175D-04 0.616D-03 0.134D-03
 Coeff-Com: -0.107D-01 0.753D-02 0.176D+00 0.826D+00
 Coeff:     -0.244D-04 0.111D-03 0.100D-03-0.175D-04 0.616D-03 0.134D-03
 Coeff:     -0.107D-01 0.753D-02 0.176D+00 0.826D+00
 Gap=     0.152 Goal=   None    Shift=    0.000
 RMSDP=1.43D-06 MaxDP=1.85D-05 DE=-1.69D-07 OVMax= 2.58D-05

 Cycle  11  Pass 1  IDiag  1:
 E= -228.522006538548     Delta-E=       -0.000000005618 Rises=F Damp=F
 DIIS: error= 2.29D-06 at cycle  11 NSaved=  11.
 NSaved=11 IEnMin=11 EnMin= -228.522006538548     IErMin=11 ErrMin= 2.29D-06
 ErrMax= 2.29D-06  0.00D+00 EMaxC= 1.00D-01 BMatC= 4.85D-10 BMatP= 5.07D-09
 IDIUse=1 WtCom= 1.00D+00 WtEn= 0.00D+00
 Coeff-Com: -0.106D-04 0.223D-04 0.693D-04-0.192D-04 0.142D-03-0.160D-03
 Coeff-Com: -0.309D-02-0.423D-03 0.170D-01 0.138D+00 0.849D+00
 Coeff:     -0.106D-04 0.223D-04 0.693D-04-0.192D-04 0.142D-03-0.160D-03
 Coeff:     -0.309D-02-0.423D-03 0.170D-01 0.138D+00 0.849D+00
 Gap=     0.152 Goal=   None    Shift=    0.000
 RMSDP=9.71D-07 MaxDP=1.71D-05 DE=-5.62D-09 OVMax= 1.13D-05

 Cycle  12  Pass 1  IDiag  1:
 E= -228.522006539123     Delta-E=       -0.000000000574 Rises=F Damp=F
 DIIS: error= 2.79D-07 at cycle  12 NSaved=  12.
 NSaved=12 IEnMin=12 EnMin= -228.522006539123     IErMin=12 ErrMin= 2.79D-07
 ErrMax= 2.79D-07  0.00D+00 EMaxC= 1.00D-01 BMatC= 9.81D-12 BMatP= 4.85D-10
 IDIUse=1 WtCom= 1.00D+00 WtEn= 0.00D+00
 Coeff-Com: -0.129D-06-0.268D-05 0.120D-04-0.275D-05-0.243D-05-0.768D-04
 Coeff-Com: -0.181D-03-0.508D-03-0.387D-02-0.144D-01 0.152D+00 0.867D+00
 Coeff:     -0.129D-06-0.268D-05 0.120D-04-0.275D-05-0.243D-05-0.768D-04
 Coeff:     -0.181D-03-0.508D-03-0.387D-02-0.144D-01 0.152D+00 0.867D+00
 Gap=     0.152 Goal=   None    Shift=    0.000
 RMSDP=1.53D-07 MaxDP=2.63D-06 DE=-5.74D-10 OVMax= 2.32D-06

 Cycle  13  Pass 1  IDiag  1:
 E= -228.522006539141     Delta-E=       -0.000000000018 Rises=F Damp=F
 DIIS: error= 1.16D-07 at cycle  13 NSaved=  13.
 NSaved=13 IEnMin=13 EnMin= -228.522006539141     IErMin=13 ErrMin= 1.16D-07
 ErrMax= 1.16D-07  0.00D+00 EMaxC= 1.00D-01 BMatC= 1.69D-12 BMatP= 9.81D-12
 IDIUse=1 WtCom= 1.00D+00 WtEn= 0.00D+00
 Coeff-Com:  0.746D-06-0.749D-06-0.240D-06-0.701D-07-0.877D-07 0.923D-05
 Coeff-Com:  0.829D-04 0.225D-04-0.398D-03-0.306D-02-0.182D-01 0.249D-01
 Coeff-Com:  0.997D+00
 Coeff:      0.746D-06-0.749D-06-0.240D-06-0.701D-07-0.877D-07 0.923D-05
 Coeff:      0.829D-04 0.225D-04-0.398D-03-0.306D-02-0.182D-01 0.249D-01
 Coeff:      0.997D+00
 Gap=     0.152 Goal=   None    Shift=    0.000
 RMSDP=2.36D-08 MaxDP=4.27D-07 DE=-1.80D-11 OVMax= 3.50D-07

 Cycle  14  Pass 1  IDiag  1:
 E= -228.522006539139     Delta-E=        0.000000000001 Rises=F Damp=F
 DIIS: error= 3.18D-08 at cycle  14 NSaved=  14.
 NSaved=14 IEnMin=13 EnMin= -228.522006539141     IErMin=14 ErrMin= 3.18D-08
 ErrMax= 3.18D-08  0.00D+00 EMaxC= 1.00D-01 BMatC= 7.02D-14 BMatP= 1.69D-12
 IDIUse=1 WtCom= 1.00D+00 WtEn= 0.00D+00
 Coeff-Com:  0.124D-06-0.390D-07-0.156D-06-0.967D-08-0.227D-06 0.155D-05
 Coeff-Com:  0.157D-04 0.298D-04-0.608D-06-0.189D-03-0.470D-02-0.111D-01
 Coeff-Com:  0.886D-01 0.927D+00
 Coeff:      0.124D-06-0.390D-07-0.156D-06-0.967D-08-0.227D-06 0.155D-05
 Coeff:      0.157D-04 0.298D-04-0.608D-06-0.189D-03-0.470D-02-0.111D-01
 Coeff:      0.886D-01 0.927D+00
 Gap=     0.152 Goal=   None    Shift=    0.000
 RMSDP=5.72D-09 MaxDP=8.70D-08 DE= 1.25D-12 OVMax= 1.01D-07

 SCF Done:  E(RB3LYP) =  -228.522006539     A.U. after   14 cycles
            NFock= 14  Conv=0.57D-08     -V/T= 2.0091
 KE= 2.264595975111D+02 PE=-7.646032056610D+02 EE= 1.990719894119D+02
 Leave Link  502 at Tue Sep 17 19:29:42 2024, MaxMem=   268435456 cpu:        10.2
 (Enter /g100_work/pMI24_ChiCa/g09d1/g09d01/d01/build-node-6-2-59348/src/main/l601.exe)
 Copying SCF densities to generalized density rwf, IOpCl= 0 IROHF=0.

 **********************************************************************

            Population analysis using the SCF density.

 **********************************************************************

 Orbital symmetries:
       Occupied  (A') (A') (A') (A') (A') (A') (A') (A') (A") (A')
                 (A') (A') (A") (A') (A") (A')
       Virtual   (A') (A') (A") (A') (A') (A") (A') (A") (A') (A')
                 (A") (A') (A') (A") (A') (A') (A') (A") (A') (A')
                 (A') (A') (A') (A') (A") (A') (A") (A') (A') (A")
                 (A') (A') (A') (A') (A") (A") (A') (A') (A') (A')
                 (A") (A") (A') (A') (A") (A') (A') (A') (A") (A")
                 (A') (A") (A') (A') (A") (A') (A") (A') (A') (A")
                 (A') (A') (A") (A') (A") (A') (A') (A') (A') (A")
                 (A') (A') (A') (A') (A')
 The electronic state is 1-A'.
 Alpha  occ. eigenvalues --  -18.90963 -18.88086 -10.08277 -10.01324  -0.82713
 Alpha  occ. eigenvalues --   -0.68524  -0.56335  -0.32139  -0.27276  -0.25899
 Alpha  occ. eigenvalues --   -0.22851  -0.17637  -0.16279  -0.04934  -0.03411
 Alpha  occ. eigenvalues --   -0.01298
 Alpha virt. eigenvalues --    0.13873   0.18599   0.18739   0.19089   0.22245
 Alpha virt. eigenvalues --    0.22677   0.23129   0.23583   0.28023   0.33763
 Alpha virt. eigenvalues --    0.35605   0.37856   0.40255   0.41238   0.42955
 Alpha virt. eigenvalues --    0.43369   0.45553   0.46783   0.49560   0.51037
 Alpha virt. eigenvalues --    0.51650   0.60517   0.67268   0.81644   0.81670
 Alpha virt. eigenvalues --    0.84778   0.91045   1.00091   1.01215   1.08260
 Alpha virt. eigenvalues --    1.13611   1.25579   1.26495   1.35252   1.39346
 Alpha virt. eigenvalues --    1.45057   1.49618   1.52209   1.54241   1.54707
 Alpha virt. eigenvalues --    1.55317   1.68827   1.70889   1.80171   1.90551
 Alpha virt. eigenvalues --    1.98094   2.01120   2.02965   2.07549   2.11974
 Alpha virt. eigenvalues --    2.12182   2.19917   2.22117   2.27512   2.28619
 Alpha virt. eigenvalues --    2.36519   2.46228   2.49628   2.54694   2.70503
 Alpha virt. eigenvalues --    2.84462   2.87467   2.87469   3.03871   3.08118
 Alpha virt. eigenvalues --    3.16424   3.27094   3.37542   3.49710   3.62732
 Alpha virt. eigenvalues --    3.66011   4.33232   4.49557   4.53869   4.80356
          Condensed to atoms (all electrons):
               1          2          3          4          5          6
     1  C    4.872847   0.460402   0.431309   0.002740  -0.030889  -0.023880
     2  O    0.460402   8.671330  -0.218451  -0.189246  -0.003286   0.001788
     3  O    0.431309  -0.218451   8.576690  -0.236968   0.007584  -0.005418
     4  C    0.002740  -0.189246  -0.236968   5.714914   0.389996   0.384337
     5  H   -0.030889  -0.003286   0.007584   0.389996   0.554646  -0.033614
     6  H   -0.023880   0.001788  -0.005418   0.384337  -0.033614   0.575745
     7  H   -0.023880   0.001788  -0.005418   0.384337  -0.033614  -0.030579
               7
     1  C   -0.023880
     2  O    0.001788
     3  O   -0.005418
     4  C    0.384337
     5  H   -0.033614
     6  H   -0.030579
     7  H    0.575745
 Mulliken charges:
               1
     1  C    0.311350
     2  O   -0.724326
     3  O   -0.549329
     4  C   -0.450111
     5  H    0.149177
     6  H    0.131620
     7  H    0.131620
 Sum of Mulliken charges =  -1.00000
 Mulliken charges with hydrogens summed into heavy atoms:
               1
     1  C    0.311350
     2  O   -0.724326
     3  O   -0.549329
     4  C   -0.037694
 Electronic spatial extent (au):  <R**2>=            263.6479
 Charge=             -1.0000 electrons
 Dipole moment (field-independent basis, Debye):
    X=             -2.5067    Y=             -4.2169    Z=              0.0000  Tot=              4.9057
 Quadrupole moment (field-independent basis, Debye-Ang):
   XX=            -37.3350   YY=            -32.4045   ZZ=            -26.0211
   XY=              0.2367   XZ=             -0.0000   YZ=             -0.0000
 Traceless Quadrupole moment (field-independent basis, Debye-Ang):
   XX=             -5.4148   YY=             -0.4843   ZZ=              5.8991
   XY=              0.2367   XZ=             -0.0000   YZ=             -0.0000
 Octapole moment (field-independent basis, Debye-Ang**2):
  XXX=             -9.0585  YYY=              0.4017  ZZZ=              0.0000  XYY=              2.2675
  XXY=             -4.7705  XXZ=              0.0000  XZZ=             -1.6202  YZZ=              0.3294
  YYZ=              0.0000  XYZ=              0.0000
 Hexadecapole moment (field-independent basis, Debye-Ang**3):
 XXXX=           -177.7797 YYYY=           -198.2948 ZZZZ=            -37.3527 XXXY=            -12.7997
 XXXZ=             -0.0000 YYYX=            -14.0919 YYYZ=             -0.0000 ZZZX=             -0.0000
 ZZZY=             -0.0000 XXYY=            -61.8153 XXZZ=            -33.2561 YYZZ=            -36.9633
 XXYZ=             -0.0000 YYXZ=             -0.0000 ZZXY=             -3.2289
 N-N= 1.105496121988D+02 E-N=-7.646032074844D+02  KE= 2.264595975111D+02
 Symmetry A'   KE= 2.167058295579D+02
 Symmetry A"   KE= 9.753767953260D+00
 No NMR shielding tensors so no spin-rotation constants.
 Leave Link  601 at Tue Sep 17 19:29:42 2024, MaxMem=   268435456 cpu:         1.5
 (Enter /g100_work/pMI24_ChiCa/g09d1/g09d01/d01/build-node-6-2-59348/src/main/l701.exe)
 Compute integral first derivatives.
 ... and contract with generalized density number  0.
 Leave Link  701 at Tue Sep 17 19:29:42 2024, MaxMem=   268435456 cpu:         1.5
 (Enter /g100_work/pMI24_ChiCa/g09d1/g09d01/d01/build-node-6-2-59348/src/main/l702.exe)
 L702 exits ... SP integral derivatives will be done elsewhere.
 Leave Link  702 at Tue Sep 17 19:29:42 2024, MaxMem=   268435456 cpu:         0.1
 (Enter /g100_work/pMI24_ChiCa/g09d1/g09d01/d01/build-node-6-2-59348/src/main/l703.exe)
 Compute integral first derivatives, UseDBF=F ICtDFT=           0.
 Integral derivatives from FoFJK, PRISM(SPDF).
 Calling FoFJK, ICntrl=      2127 FMM=F ISym2X=1 I1Cent= 0 IOpClX= 0 NMat=1 NMatS=1 NMatT=0.
 FoFJK:  IHMeth= 1 ICntrl=    2127 DoSepK=F KAlg= 0 I1Cent=   0 FoldK=F
 IRaf=         0 NMat=   1 IRICut=       1 DoRegI=T DoRafI=F ISym2E= 1.
 FoFCou: FMM=F IPFlag=           0 FMFlag=      100000 FMFlg1=         800
         NFxFlg=           0 DoJE=F BraDBF=F KetDBF=F FulRan=T
         wScrn=  0.000000 ICntrl=    2127 IOpCl=  0 I1Cent=           0 NGrid=           0
         NMat0=    1 NMatS0=      1 NMatT0=    0 NMatD0=    1 NMtDS0=    0 NMtDT0=    0
 Petite list used in FoFCou.
 Leave Link  703 at Tue Sep 17 19:29:43 2024, MaxMem=   268435456 cpu:         3.5
 (Enter /g100_work/pMI24_ChiCa/g09d1/g09d01/d01/build-node-6-2-59348/src/main/l716.exe)
 Dipole        =-9.86202977D-01-1.65906110D+00 2.22044605D-16
 ***** Axes restored to original set *****
 -------------------------------------------------------------------
 Center     Atomic                   Forces (Hartrees/Bohr)
 Number     Number              X              Y              Z
 -------------------------------------------------------------------
      1        6           0.013694400   -0.000000000    0.126725136
      2        8          -0.022443008    0.000000000   -0.086123221
      3        8           0.028923923   -0.000000000   -0.038257017
      4        6          -0.003831929   -0.000000000    0.014116141
      5        1          -0.014697030    0.000000000    0.008873885
      6        1          -0.000823178    0.013653942   -0.012667462
      7        1          -0.000823178   -0.013653942   -0.012667462
 -------------------------------------------------------------------
 Cartesian Forces:  Max     0.126725136 RMS     0.036300157
 Leave Link  716 at Tue Sep 17 19:29:43 2024, MaxMem=   268435456 cpu:         0.1
 (Enter /g100_work/pMI24_ChiCa/g09d1/g09d01/d01/build-node-6-2-59348/src/main/l103.exe)

 GradGradGradGradGradGradGradGradGradGradGradGradGradGradGradGradGradGrad
 Berny optimization.
 FormGI is forming the generalized inverse of G from B-inverse, IUseBI=4.
 Internal  Forces:  Max     0.086122278 RMS     0.024502586
 Search for a local minimum.
 Step number   1 out of a maximum of   31
 All quantities printed in internal units (Hartrees-Bohrs-Radians)
 RMS Force = .24503D-01 SwitMx=.10000D-02 MixMth= 1
 Mixed Optimization -- RFO/linear search
 Second derivative matrix not updated -- first step.
 ITU=  0
     Eigenvalues ---    0.00766   0.00766   0.07537   0.07537   0.16000
     Eigenvalues ---    0.16000   0.16000   0.25000   0.25000   0.32377
     Eigenvalues ---    0.37230   0.37230   0.37230   0.45621   0.95383
 RFO step:  Lambda=-2.77912710D-02 EMin= 7.65947438D-03
 Linear search not attempted -- first point.
 Iteration  1 RMS(Cart)=  0.05309654 RMS(Int)=  0.00254444
 Iteration  2 RMS(Cart)=  0.00283616 RMS(Int)=  0.00006502
 Iteration  3 RMS(Cart)=  0.00000871 RMS(Int)=  0.00006467
 Iteration  4 RMS(Cart)=  0.00000000 RMS(Int)=  0.00006467
 ITry= 1 IFail=0 DXMaxC= 1.30D-01 DCOld= 1.00D+10 DXMaxT= 3.00D-01 DXLimC= 3.00D+00 Rises=F
 ClnCor:  largest displacement from symmetrization is 4.02D-12 for atom     5.
 Variable       Old X    -DE/DX   Delta X   Delta X   Delta X     New X
                                 (Linear)    (Quad)   (Total)
    R1        2.64562  -0.08612   0.00000  -0.17794  -0.17794   2.46768
    R2        2.30547   0.04418   0.00000   0.04500   0.04500   2.35047
    R3        2.83459   0.01864   0.00000   0.05303   0.05303   2.88762
    R4        2.02201   0.01694   0.00000   0.04233   0.04233   2.06434
    R5        2.02201   0.01848   0.00000   0.04618   0.04618   2.06818
    R6        2.02201   0.01848   0.00000   0.04618   0.04618   2.06818
    A1        2.09440   0.03414   0.00000   0.12290   0.12290   2.21729
    A2        2.09440  -0.02524   0.00000  -0.09087  -0.09087   2.00353
    A3        2.09440  -0.00890   0.00000  -0.03203  -0.03203   2.06237
    A4        1.91063   0.00462   0.00000   0.02907   0.02894   1.93957
    A5        1.91063   0.00006   0.00000  -0.00191  -0.00202   1.90861
    A6        1.91063   0.00006   0.00000  -0.00191  -0.00202   1.90861
    A7        1.91063  -0.00106   0.00000  -0.00115  -0.00129   1.90934
    A8        1.91063  -0.00106   0.00000  -0.00115  -0.00129   1.90934
    A9        1.91063  -0.00263   0.00000  -0.02294  -0.02303   1.88761
    D1        0.00000  -0.00000   0.00000  -0.00000   0.00000   0.00000
    D2        2.09440   0.00157   0.00000   0.01522   0.01524   2.10963
    D3       -2.09440  -0.00157   0.00000  -0.01522  -0.01524  -2.10963
    D4        3.14159   0.00000   0.00000   0.00000   0.00000   3.14159
    D5       -1.04720   0.00157   0.00000   0.01522   0.01524  -1.03196
    D6        1.04720  -0.00157   0.00000  -0.01522  -0.01524   1.03196
         Item               Value     Threshold  Converged?
 Maximum Force            0.086122     0.000450     NO 
 RMS     Force            0.024503     0.000300     NO 
 Maximum Displacement     0.129842     0.001800     NO 
 RMS     Displacement     0.052175     0.001200     NO 
 Predicted change in Energy=-1.485810D-02
 Lowest energy point so far.  Saving SCF results.
 GradGradGradGradGradGradGradGradGradGradGradGradGradGradGradGradGradGrad

 Leave Link  103 at Tue Sep 17 19:29:43 2024, MaxMem=   268435456 cpu:         1.7
 (Enter /g100_work/pMI24_ChiCa/g09d1/g09d01/d01/build-node-6-2-59348/src/main/l202.exe)
                          Input orientation:                          
 ---------------------------------------------------------------------
 Center     Atomic      Atomic             Coordinates (Angstroms)
 Number     Number       Type             X           Y           Z
 ---------------------------------------------------------------------
      1          6           0        0.038271   -0.000000    0.029709
      2          8           0       -0.067089   -0.000000    1.331290
      3          8           0        1.088300   -0.000000   -0.637009
      4          6           0       -1.292718    0.000000   -0.720924
      5          1           0       -2.136255    0.000000   -0.026817
      6          1           0       -1.348379    0.886270   -1.360625
      7          1           0       -1.348379   -0.886270   -1.360625
 ---------------------------------------------------------------------
                    Distance matrix (angstroms):
                    1          2          3          4          5
     1  C    0.000000
     2  O    1.305838   0.000000
     3  O    1.243815   2.282351   0.000000
     4  C    1.528064   2.390345   2.382496   0.000000
     5  H    2.175261   2.475057   3.281782   1.092401   0.000000
     6  H    2.154368   3.110239   2.691932   1.094436   1.784732
     7  H    2.154368   3.110239   2.691932   1.094436   1.784732
                    6          7
     6  H    0.000000
     7  H    1.772539   0.000000
 Stoichiometry    C2H3O2(1-)
 Framework group  CS[SG(C2HO2),X(H2)]
 Deg. of freedom    10
 Full point group                 CS      NOp   2
 RotChk:  IX=0 Diff= 2.41D-01
 Largest Abelian subgroup         CS      NOp   2
 Largest concise Abelian subgroup CS      NOp   2
                         Standard orientation:                         
 ---------------------------------------------------------------------
 Center     Atomic      Atomic             Coordinates (Angstroms)
 Number     Number       Type             X           Y           Z
 ---------------------------------------------------------------------
      1          6           0        0.000000    0.188158    0.000000
      2          8           0        1.240575    0.595819   -0.000000
      3          8           0       -1.021758    0.897444    0.000000
      4          6           0       -0.175707   -1.329770   -0.000000
      5          1           0        0.791214   -1.838104   -0.000000
      6          1           0       -0.743757   -1.629162    0.886270
      7          1           0       -0.743757   -1.629162   -0.886270
 ---------------------------------------------------------------------
 Rotational constants (GHZ):     11.2656685     10.0557520      5.4961581
 Leave Link  202 at Tue Sep 17 19:29:43 2024, MaxMem=   268435456 cpu:         0.1
 (Enter /g100_work/pMI24_ChiCa/g09d1/g09d01/d01/build-node-6-2-59348/src/main/l301.exe)
 Standard basis: 6-31+G(d,p) (6D, 7F)
 Ernie: Thresh=  0.10000D-02 Tol=  0.10000D-05 Strict=F.
 There are    65 symmetry adapted cartesian basis functions of A'  symmetry.
 There are    26 symmetry adapted cartesian basis functions of A"  symmetry.
 There are    65 symmetry adapted basis functions of A'  symmetry.
 There are    26 symmetry adapted basis functions of A"  symmetry.
    91 basis functions,   149 primitive gaussians,    91 cartesian basis functions
    16 alpha electrons       16 beta electrons
       nuclear repulsion energy       111.3416795267 Hartrees.
 IExCor=  402 DFT=T Ex+Corr=B3LYP ExCW=0 ScaHFX=  0.200000
 ScaDFX=  0.800000  0.720000  1.000000  0.810000 ScalE2=  1.000000  1.000000
 IRadAn=      0 IRanWt=     -1 IRanGd=            0 ICorTp=0 IEmpDi=  4
 NAtoms=    7 NActive=    7 NUniq=    6 SFac= 1.36D+00 NAtFMM=   60 NAOKFM=F Big=F
 Integral buffers will be    131072 words long.
 Raffenetti 2 integral format.
 Two-electron integral symmetry is turned on.
 Leave Link  301 at Tue Sep 17 19:29:43 2024, MaxMem=   268435456 cpu:         0.1
 (Enter /g100_work/pMI24_ChiCa/g09d1/g09d01/d01/build-node-6-2-59348/src/main/l302.exe)
 NPDir=0 NMtPBC=     1 NCelOv=     1 NCel=       1 NClECP=     1 NCelD=      1
         NCelK=      1 NCelE2=     1 NClLst=     1 CellRange=     0.0.
 One-electron integrals computed using PRISM.
 One-electron integral symmetry used in STVInt
 NBasis=    91 RedAO= T EigKep=  3.91D-04  NBF=    65    26
 NBsUse=    91 1.00D-06 EigRej= -1.00D+00 NBFU=    65    26
 Precomputing XC quadrature grid using
 IXCGrd= 4 IRadAn=           0 IRanWt=          -1 IRanGd=           0 AccXCQ= 0.00D+00.
 Generated NRdTot=       0 NPtTot=           0 NUsed=           0 NTot=          32
 NSgBfM=    91    91    91    91    91 MxSgAt=     7 MxSgA2=     7.
 Leave Link  302 at Tue Sep 17 19:29:43 2024, MaxMem=   268435456 cpu:         1.3
 (Enter /g100_work/pMI24_ChiCa/g09d1/g09d01/d01/build-node-6-2-59348/src/main/l303.exe)
 DipDrv:  MaxL=1.
 Leave Link  303 at Tue Sep 17 19:29:43 2024, MaxMem=   268435456 cpu:         0.2
 (Enter /g100_work/pMI24_ChiCa/g09d1/g09d01/d01/build-node-6-2-59348/src/main/l401.exe)
 Initial guess from the checkpoint file:  "/g100_scratch/userexternal/ecabiati/g16_14420039/Gau-4812.chk"
 B after Tr=    -0.000000   -0.000000   -0.000000
         Rot=    0.996667    0.000000    0.000000   -0.081574 Ang=  -9.36 deg.
 Guess basis will be translated and rotated to current coordinates.
 JPrj=2 DoOrth=T DoCkMO=T.
 Initial guess orbital symmetries:
       Occupied  (A') (A') (A') (A') (A') (A') (A') (A') (A") (A')
                 (A') (A') (A") (A') (A") (A')
       Virtual   (A') (A') (A') (A') (A') (A') (A') (A') (A') (A')
                 (A') (A') (A') (A') (A') (A') (A') (A') (A') (A')
                 (A') (A') (A') (A') (A') (A') (A') (A') (A') (A')
                 (A') (A') (A') (A') (A') (A') (A') (A') (A') (A')
                 (A') (A') (A') (A') (A') (A') (A') (A') (A') (A')
                 (A') (A') (A") (A") (A") (A") (A") (A") (A") (A")
                 (A") (A") (A") (A") (A") (A") (A") (A") (A") (A")
                 (A") (A") (A") (A") (A")
 The electronic state of the initial guess is 1-A'.
 Generating alternative initial guess.
 ExpMin= 4.38D-02 ExpMax= 5.48D+03 ExpMxC= 8.25D+02 IAcc=2 IRadAn=         4 AccDes= 0.00D+00
 Harris functional with IExCor=  402 and IRadAn=       4 diagonalized for initial guess.
 HarFok:  IExCor=  402 AccDes= 0.00D+00 IRadAn=         4 IDoV= 1 UseB2=F ITyADJ=14
 ICtDFT=  3500011 ScaDFX=  1.000000  1.000000  1.000000  1.000000
 FoFCou: FMM=F IPFlag=           0 FMFlag=      100000 FMFlg1=           0
         NFxFlg=           0 DoJE=T BraDBF=F KetDBF=T FulRan=T
         wScrn=  0.000000 ICntrl=     500 IOpCl=  0 I1Cent=   200000004 NGrid=           0
         NMat0=    1 NMatS0=      1 NMatT0=    0 NMatD0=    1 NMtDS0=    0 NMtDT0=    0
 Petite list used in FoFCou.
 Harris En= -228.751325647081    
 Leave Link  401 at Tue Sep 17 19:29:43 2024, MaxMem=   268435456 cpu:         1.8
 (Enter /g100_work/pMI24_ChiCa/g09d1/g09d01/d01/build-node-6-2-59348/src/main/l502.exe)
 Closed shell SCF:
 Using DIIS extrapolation, IDIIS=  1040.
 Integral symmetry usage will be decided dynamically.
 Keep R1 ints in memory in symmetry-blocked form, NReq=13364509.
 IVT=       46381 IEndB=       46381 NGot=   268435456 MDV=   263834430
 LenX=   263834430 LenY=   263825708
 Requested convergence on RMS density matrix=1.00D-08 within 128 cycles.
 Requested convergence on MAX density matrix=1.00D-06.
 Requested convergence on             energy=1.00D-06.
 No special actions if energy rises.
 FoFCou: FMM=F IPFlag=           0 FMFlag=           0 FMFlg1=           0
         NFxFlg=           0 DoJE=F BraDBF=F KetDBF=F FulRan=T
         wScrn=  0.000000 ICntrl=     600 IOpCl=  0 I1Cent=           0 NGrid=           0
         NMat0=    1 NMatS0=   4186 NMatT0=    0 NMatD0=    1 NMtDS0=    0 NMtDT0=    0
 Petite list used in FoFCou.

 Cycle   1  Pass 1  IDiag  1:
 E= -228.530864798753    
 DIIS: error= 4.74D-03 at cycle   1 NSaved=   1.
 NSaved= 1 IEnMin= 1 EnMin= -228.530864798753     IErMin= 1 ErrMin= 4.74D-03
 ErrMax= 4.74D-03  0.00D+00 EMaxC= 1.00D-01 BMatC= 6.09D-03 BMatP= 6.09D-03
 IDIUse=3 WtCom= 9.53D-01 WtEn= 4.74D-02
 Coeff-Com:  0.100D+01
 Coeff-En:   0.100D+01
 Coeff:      0.100D+01
 Gap=     0.409 Goal=   None    Shift=    0.000
 GapD=    0.409 DampG=2.000 DampE=1.000 DampFc=2.0000 IDamp=-1.
 RMSDP=2.04D-03 MaxDP=2.80D-02              OVMax= 4.25D-02

 Cycle   2  Pass 1  IDiag  1:
 E= -228.539883238729     Delta-E=       -0.009018439976 Rises=F Damp=F
 DIIS: error= 2.54D-03 at cycle   2 NSaved=   2.
 NSaved= 2 IEnMin= 2 EnMin= -228.539883238729     IErMin= 2 ErrMin= 2.54D-03
 ErrMax= 2.54D-03  0.00D+00 EMaxC= 1.00D-01 BMatC= 1.17D-03 BMatP= 6.09D-03
 IDIUse=3 WtCom= 9.75D-01 WtEn= 2.54D-02
 Coeff-Com:  0.198D+00 0.802D+00
 Coeff-En:   0.000D+00 0.100D+01
 Coeff:      0.193D+00 0.807D+00
 Gap=     0.161 Goal=   None    Shift=    0.000
 RMSDP=7.15D-04 MaxDP=1.58D-02 DE=-9.02D-03 OVMax= 2.06D-02

 Cycle   3  Pass 1  IDiag  1:
 E= -228.539249375953     Delta-E=        0.000633862775 Rises=F Damp=F
 DIIS: error= 4.14D-03 at cycle   3 NSaved=   3.
 NSaved= 3 IEnMin= 2 EnMin= -228.539883238729     IErMin= 2 ErrMin= 2.54D-03
 ErrMax= 4.14D-03  0.00D+00 EMaxC= 1.00D-01 BMatC= 1.98D-03 BMatP= 1.17D-03
 IDIUse=3 WtCom= 1.35D-01 WtEn= 8.65D-01
 Coeff-Com: -0.804D-02 0.571D+00 0.437D+00
 Coeff-En:   0.000D+00 0.606D+00 0.394D+00
 Coeff:     -0.108D-02 0.601D+00 0.400D+00
 Gap=     0.171 Goal=   None    Shift=    0.000
 RMSDP=6.37D-04 MaxDP=1.06D-02 DE= 6.34D-04 OVMax= 1.62D-02

 Cycle   4  Pass 1  IDiag  1:
 E= -228.540745003452     Delta-E=       -0.001495627499 Rises=F Damp=F
 DIIS: error= 1.12D-03 at cycle   4 NSaved=   4.
 NSaved= 4 IEnMin= 4 EnMin= -228.540745003452     IErMin= 4 ErrMin= 1.12D-03
 ErrMax= 1.12D-03  0.00D+00 EMaxC= 1.00D-01 BMatC= 8.62D-05 BMatP= 1.17D-03
 IDIUse=3 WtCom= 9.89D-01 WtEn= 1.12D-02
 Coeff-Com: -0.150D-01 0.290D+00 0.240D+00 0.485D+00
 Coeff-En:   0.000D+00 0.000D+00 0.000D+00 0.100D+01
 Coeff:     -0.149D-01 0.286D+00 0.237D+00 0.491D+00
 Gap=     0.171 Goal=   None    Shift=    0.000
 RMSDP=1.42D-04 MaxDP=2.21D-03 DE=-1.50D-03 OVMax= 3.87D-03

 Cycle   5  Pass 1  IDiag  1:
 E= -228.540812149354     Delta-E=       -0.000067145901 Rises=F Damp=F
 DIIS: error= 3.80D-04 at cycle   5 NSaved=   5.
 NSaved= 5 IEnMin= 5 EnMin= -228.540812149354     IErMin= 5 ErrMin= 3.80D-04
 ErrMax= 3.80D-04  0.00D+00 EMaxC= 1.00D-01 BMatC= 1.48D-05 BMatP= 8.62D-05
 IDIUse=3 WtCom= 9.96D-01 WtEn= 3.80D-03
 Coeff-Com: -0.952D-02 0.100D+00 0.978D-01 0.297D+00 0.514D+00
 Coeff-En:   0.000D+00 0.000D+00 0.000D+00 0.959D-01 0.904D+00
 Coeff:     -0.948D-02 0.100D+00 0.974D-01 0.296D+00 0.516D+00
 Gap=     0.170 Goal=   None    Shift=    0.000
 RMSDP=4.43D-05 MaxDP=9.84D-04 DE=-6.71D-05 OVMax= 1.13D-03

 Cycle   6  Pass 1  IDiag  1:
 E= -228.540822417812     Delta-E=       -0.000010268458 Rises=F Damp=F
 DIIS: error= 1.00D-04 at cycle   6 NSaved=   6.
 NSaved= 6 IEnMin= 6 EnMin= -228.540822417812     IErMin= 6 ErrMin= 1.00D-04
 ErrMax= 1.00D-04  0.00D+00 EMaxC= 1.00D-01 BMatC= 1.50D-06 BMatP= 1.48D-05
 IDIUse=3 WtCom= 9.99D-01 WtEn= 1.00D-03
 Coeff-Com: -0.357D-02 0.313D-01 0.363D-01 0.129D+00 0.311D+00 0.497D+00
 Coeff-En:   0.000D+00 0.000D+00 0.000D+00 0.000D+00 0.234D-01 0.977D+00
 Coeff:     -0.357D-02 0.312D-01 0.362D-01 0.128D+00 0.311D+00 0.497D+00
 Gap=     0.170 Goal=   None    Shift=    0.000
 RMSDP=1.43D-05 MaxDP=2.57D-04 DE=-1.03D-05 OVMax= 3.12D-04

 Cycle   7  Pass 1  IDiag  1:
 E= -228.540823588402     Delta-E=       -0.000001170590 Rises=F Damp=F
 DIIS: error= 1.25D-05 at cycle   7 NSaved=   7.
 NSaved= 7 IEnMin= 7 EnMin= -228.540823588402     IErMin= 7 ErrMin= 1.25D-05
 ErrMax= 1.25D-05  0.00D+00 EMaxC= 1.00D-01 BMatC= 1.65D-08 BMatP= 1.50D-06
 IDIUse=1 WtCom= 1.00D+00 WtEn= 0.00D+00
 Coeff-Com:  0.366D-04-0.315D-02-0.188D-02 0.325D-02 0.249D-01 0.119D+00
 Coeff-Com:  0.858D+00
 Coeff:      0.366D-04-0.315D-02-0.188D-02 0.325D-02 0.249D-01 0.119D+00
 Coeff:      0.858D+00
 Gap=     0.170 Goal=   None    Shift=    0.000
 RMSDP=4.59D-06 MaxDP=9.90D-05 DE=-1.17D-06 OVMax= 3.86D-05

 Cycle   8  Pass 1  IDiag  1:
 E= -228.540823604275     Delta-E=       -0.000000015873 Rises=F Damp=F
 DIIS: error= 2.68D-06 at cycle   8 NSaved=   8.
 NSaved= 8 IEnMin= 8 EnMin= -228.540823604275     IErMin= 8 ErrMin= 2.68D-06
 ErrMax= 2.68D-06  0.00D+00 EMaxC= 1.00D-01 BMatC= 6.07D-10 BMatP= 1.65D-08
 IDIUse=1 WtCom= 1.00D+00 WtEn= 0.00D+00
 Coeff-Com:  0.479D-04-0.113D-02-0.111D-02 0.578D-04 0.151D-02 0.226D-01
 Coeff-Com:  0.195D+00 0.783D+00
 Coeff:      0.479D-04-0.113D-02-0.111D-02 0.578D-04 0.151D-02 0.226D-01
 Coeff:      0.195D+00 0.783D+00
 Gap=     0.170 Goal=   None    Shift=    0.000
 RMSDP=8.31D-07 MaxDP=2.05D-05 DE=-1.59D-08 OVMax= 1.01D-05

 Cycle   9  Pass 1  IDiag  1:
 E= -228.540823604797     Delta-E=       -0.000000000522 Rises=F Damp=F
 DIIS: error= 7.69D-07 at cycle   9 NSaved=   9.
 NSaved= 9 IEnMin= 9 EnMin= -228.540823604797     IErMin= 9 ErrMin= 7.69D-07
 ErrMax= 7.69D-07  0.00D+00 EMaxC= 1.00D-01 BMatC= 8.33D-11 BMatP= 6.07D-10
 IDIUse=1 WtCom= 1.00D+00 WtEn= 0.00D+00
 Coeff-Com:  0.300D-04-0.367D-03-0.486D-03-0.299D-03-0.164D-02 0.121D-02
 Coeff-Com:  0.256D-01 0.367D+00 0.609D+00
 Coeff:      0.300D-04-0.367D-03-0.486D-03-0.299D-03-0.164D-02 0.121D-02
 Coeff:      0.256D-01 0.367D+00 0.609D+00
 Gap=     0.170 Goal=   None    Shift=    0.000
 RMSDP=2.28D-07 MaxDP=4.38D-06 DE=-5.22D-10 OVMax= 3.25D-06

 Cycle  10  Pass 1  IDiag  1:
 E= -228.540823604881     Delta-E=       -0.000000000084 Rises=F Damp=F
 DIIS: error= 1.42D-07 at cycle  10 NSaved=  10.
 NSaved=10 IEnMin=10 EnMin= -228.540823604881     IErMin=10 ErrMin= 1.42D-07
 ErrMax= 1.42D-07  0.00D+00 EMaxC= 1.00D-01 BMatC= 2.31D-12 BMatP= 8.33D-11
 IDIUse=1 WtCom= 1.00D+00 WtEn= 0.00D+00
 Coeff-Com:  0.416D-05-0.149D-04-0.540D-04-0.564D-04-0.568D-03-0.140D-02
 Coeff-Com: -0.789D-02 0.489D-01 0.186D+00 0.775D+00
 Coeff:      0.416D-05-0.149D-04-0.540D-04-0.564D-04-0.568D-03-0.140D-02
 Coeff:     -0.789D-02 0.489D-01 0.186D+00 0.775D+00
 Gap=     0.170 Goal=   None    Shift=    0.000
 RMSDP=7.69D-08 MaxDP=1.89D-06 DE=-8.39D-11 OVMax= 7.00D-07

 Cycle  11  Pass 1  IDiag  1:
 E= -228.540823604881     Delta-E=        0.000000000000 Rises=F Damp=F
 DIIS: error= 3.37D-08 at cycle  11 NSaved=  11.
 NSaved=11 IEnMin=10 EnMin= -228.540823604881     IErMin=11 ErrMin= 3.37D-08
 ErrMax= 3.37D-08  0.00D+00 EMaxC= 1.00D-01 BMatC= 8.80D-14 BMatP= 2.31D-12
 IDIUse=1 WtCom= 1.00D+00 WtEn= 0.00D+00
 Coeff-Com: -0.268D-06 0.971D-05 0.103D-04-0.514D-05-0.181D-04-0.289D-03
 Coeff-Com: -0.232D-02-0.705D-02 0.598D-02 0.170D+00 0.833D+00
 Coeff:     -0.268D-06 0.971D-05 0.103D-04-0.514D-05-0.181D-04-0.289D-03
 Coeff:     -0.232D-02-0.705D-02 0.598D-02 0.170D+00 0.833D+00
 Gap=     0.170 Goal=   None    Shift=    0.000
 RMSDP=6.51D-09 MaxDP=8.93D-08 DE= 0.00D+00 OVMax= 2.16D-07

 SCF Done:  E(RB3LYP) =  -228.540823605     A.U. after   11 cycles
            NFock= 11  Conv=0.65D-08     -V/T= 2.0093
 KE= 2.264461766625D+02 PE=-7.662008367172D+02 EE= 1.998721569232D+02
 Leave Link  502 at Tue Sep 17 19:29:44 2024, MaxMem=   268435456 cpu:         8.5
 (Enter /g100_work/pMI24_ChiCa/g09d1/g09d01/d01/build-node-6-2-59348/src/main/l701.exe)
 Compute integral first derivatives.
 ... and contract with generalized density number  0.
 Leave Link  701 at Tue Sep 17 19:29:44 2024, MaxMem=   268435456 cpu:         1.5
 (Enter /g100_work/pMI24_ChiCa/g09d1/g09d01/d01/build-node-6-2-59348/src/main/l702.exe)
 L702 exits ... SP integral derivatives will be done elsewhere.
 Leave Link  702 at Tue Sep 17 19:29:44 2024, MaxMem=   268435456 cpu:         0.1
 (Enter /g100_work/pMI24_ChiCa/g09d1/g09d01/d01/build-node-6-2-59348/src/main/l703.exe)
 Compute integral first derivatives, UseDBF=F ICtDFT=           0.
 Integral derivatives from FoFJK, PRISM(SPDF).
 Calling FoFJK, ICntrl=      2127 FMM=F ISym2X=1 I1Cent= 0 IOpClX= 0 NMat=1 NMatS=1 NMatT=0.
 FoFJK:  IHMeth= 1 ICntrl=    2127 DoSepK=F KAlg= 0 I1Cent=   0 FoldK=F
 IRaf=         0 NMat=   1 IRICut=       1 DoRegI=T DoRafI=F ISym2E= 1.
 FoFCou: FMM=F IPFlag=           0 FMFlag=      100000 FMFlg1=         800
         NFxFlg=           0 DoJE=F BraDBF=F KetDBF=F FulRan=T
         wScrn=  0.000000 ICntrl=    2127 IOpCl=  0 I1Cent=           0 NGrid=           0
         NMat0=    1 NMatS0=      1 NMatT0=    0 NMatD0=    1 NMtDS0=    0 NMtDT0=    0
 Petite list used in FoFCou.
 Leave Link  703 at Tue Sep 17 19:29:44 2024, MaxMem=   268435456 cpu:         3.5
 (Enter /g100_work/pMI24_ChiCa/g09d1/g09d01/d01/build-node-6-2-59348/src/main/l716.exe)
 Dipole        =-3.65455721D-01-1.58977891D+00 0.00000000D+00
 ***** Axes restored to original set *****
 -------------------------------------------------------------------
 Center     Atomic                   Forces (Hartrees/Bohr)
 Number     Number              X              Y              Z
 -------------------------------------------------------------------
      1        6          -0.004737760    0.000000000    0.058267479
      2        8           0.002449721    0.000000000   -0.035106221
      3        8           0.011628400    0.000000000   -0.013375729
      4        6          -0.006682277    0.000000000   -0.003797391
      5        1          -0.000952904    0.000000000    0.000185962
      6        1          -0.000852590    0.000872273   -0.003087050
      7        1          -0.000852590   -0.000872273   -0.003087050
 -------------------------------------------------------------------
 Cartesian Forces:  Max     0.058267479 RMS     0.015510632
 Leave Link  716 at Tue Sep 17 19:29:45 2024, MaxMem=   268435456 cpu:         0.1
 (Enter /g100_work/pMI24_ChiCa/g09d1/g09d01/d01/build-node-6-2-59348/src/main/l103.exe)

 GradGradGradGradGradGradGradGradGradGradGradGradGradGradGradGradGradGrad
 Berny optimization.
 Using GEDIIS/GDIIS optimizer.
 FormGI is forming the generalized inverse of G from B-inverse, IUseBI=4.
 Internal  Forces:  Max     0.035188725 RMS     0.009281284
 Search for a local minimum.
 Step number   2 out of a maximum of   31
 All quantities printed in internal units (Hartrees-Bohrs-Radians)
 RMS Force = .92813D-02 SwitMx=.10000D-02 MixMth= 1
 Mixed Optimization -- RFO/linear search
 Update second derivatives using D2CorX and points    1    2
 DE= -1.88D-02 DEPred=-1.49D-02 R= 1.27D+00
 TightC=F SS=  1.41D+00  RLast= 2.63D-01 DXNew= 5.0454D-01 7.8947D-01
 Trust test= 1.27D+00 RLast= 2.63D-01 DXMaxT set to 5.05D-01
 ITU=  1  0
 Use linear search instead of GDIIS.
     Eigenvalues ---    0.00766   0.00766   0.07304   0.07566   0.15874
     Eigenvalues ---    0.16000   0.16038   0.22741   0.27951   0.29294
     Eigenvalues ---    0.36373   0.37230   0.37338   0.38926   0.92841
 RFO step:  Lambda=-2.44350977D-03 EMin= 7.65947438D-03
 Quartic linear search produced a step of  0.34610.
 Iteration  1 RMS(Cart)=  0.02226475 RMS(Int)=  0.00026409
 Iteration  2 RMS(Cart)=  0.00037580 RMS(Int)=  0.00003887
 Iteration  3 RMS(Cart)=  0.00000007 RMS(Int)=  0.00003887
 ITry= 1 IFail=0 DXMaxC= 7.00D-02 DCOld= 1.00D+10 DXMaxT= 5.05D-01 DXLimC= 3.00D+00 Rises=F
 ClnCor:  largest displacement from symmetrization is 1.64D-11 for atom     5.
 Variable       Old X    -DE/DX   Delta X   Delta X   Delta X     New X
                                 (Linear)    (Quad)   (Total)
    R1        2.46768  -0.03519  -0.06158  -0.04434  -0.10592   2.36175
    R2        2.35047   0.01699   0.01558   0.01086   0.02644   2.37691
    R3        2.88762   0.01294   0.01835   0.03413   0.05248   2.94010
    R4        2.06434   0.00085   0.01465  -0.01170   0.00295   2.06728
    R5        2.06818   0.00255   0.01598  -0.00694   0.00904   2.07723
    R6        2.06818   0.00255   0.01598  -0.00694   0.00904   2.07723
    A1        2.21729   0.00428   0.04253  -0.02582   0.01671   2.23400
    A2        2.00353   0.00332  -0.03145   0.05367   0.02222   2.02575
    A3        2.06237  -0.00760  -0.01109  -0.02784  -0.03893   2.02344
    A4        1.93957   0.00040   0.01001  -0.00913   0.00081   1.94038
    A5        1.90861   0.00157  -0.00070   0.01338   0.01261   1.92122
    A6        1.90861   0.00157  -0.00070   0.01338   0.01261   1.92122
    A7        1.90934  -0.00054  -0.00045  -0.00254  -0.00306   1.90629
    A8        1.90934  -0.00054  -0.00045  -0.00254  -0.00306   1.90629
    A9        1.88761  -0.00256  -0.00797  -0.01267  -0.02071   1.86690
    D1        0.00000   0.00000   0.00000   0.00000   0.00000   0.00000
    D2        2.10963   0.00063   0.00527  -0.00018   0.00510   2.11473
    D3       -2.10963  -0.00063  -0.00527   0.00018  -0.00510  -2.11473
    D4        3.14159   0.00000   0.00000   0.00000   0.00000   3.14159
    D5       -1.03196   0.00063   0.00527  -0.00018   0.00510  -1.02686
    D6        1.03196  -0.00063  -0.00527   0.00018  -0.00510   1.02686
         Item               Value     Threshold  Converged?
 Maximum Force            0.035189     0.000450     NO 
 RMS     Force            0.009281     0.000300     NO 
 Maximum Displacement     0.070018     0.001800     NO 
 RMS     Displacement     0.022136     0.001200     NO 
 Predicted change in Energy=-3.092599D-03
 Lowest energy point so far.  Saving SCF results.
 GradGradGradGradGradGradGradGradGradGradGradGradGradGradGradGradGradGrad

 Leave Link  103 at Tue Sep 17 19:29:45 2024, MaxMem=   268435456 cpu:         1.3
 (Enter /g100_work/pMI24_ChiCa/g09d1/g09d01/d01/build-node-6-2-59348/src/main/l202.exe)
                          Input orientation:                          
 ---------------------------------------------------------------------
 Center     Atomic      Atomic             Coordinates (Angstroms)
 Number     Number       Type             X           Y           Z
 ---------------------------------------------------------------------
      1          6           0        0.046178   -0.000000    0.066761
      2          8           0       -0.045564   -0.000000    1.313176
      3          8           0        1.091525   -0.000000   -0.632756
      4          6           0       -1.297448    0.000000   -0.717647
      5          1           0       -2.153015    0.000000   -0.035919
      6          1           0       -1.353962    0.883421   -1.369308
      7          1           0       -1.353962   -0.883421   -1.369308
 ---------------------------------------------------------------------
                    Distance matrix (angstroms):
                    1          2          3          4          5
     1  C    0.000000
     2  O    1.249787   0.000000
     3  O    1.257806   2.253802   0.000000
     4  C    1.555836   2.385677   2.390481   0.000000
     5  H    2.201589   2.502281   3.298978   1.093960   0.000000
     6  H    2.191602   3.112565   2.702472   1.099222   1.787972
     7  H    2.191602   3.112565   2.702472   1.099222   1.787972
                    6          7
     6  H    0.000000
     7  H    1.766842   0.000000
 Stoichiometry    C2H3O2(1-)
 Framework group  CS[SG(C2HO2),X(H2)]
 Deg. of freedom    10
 Full point group                 CS      NOp   2
 RotChk:  IX=0 Diff= 2.10D-01
 Largest Abelian subgroup         CS      NOp   2
 Largest concise Abelian subgroup CS      NOp   2
                         Standard orientation:                         
 ---------------------------------------------------------------------
 Center     Atomic      Atomic             Coordinates (Angstroms)
 Number     Number       Type             X           Y           Z
 ---------------------------------------------------------------------
      1          6           0        0.000000    0.205139   -0.000000
      2          8           0        1.112431    0.774757   -0.000000
      3          8           0       -1.141010    0.734451   -0.000000
      4          6           0        0.028452   -1.350437    0.000000
      5          1           0        1.055603   -1.726879    0.000000
      6          1           0       -0.498841   -1.737499    0.883421
      7          1           0       -0.498841   -1.737499   -0.883421
 ---------------------------------------------------------------------
 Rotational constants (GHZ):     11.5327848      9.9414776      5.5226452
 Leave Link  202 at Tue Sep 17 19:29:45 2024, MaxMem=   268435456 cpu:         0.1
 (Enter /g100_work/pMI24_ChiCa/g09d1/g09d01/d01/build-node-6-2-59348/src/main/l301.exe)
 Standard basis: 6-31+G(d,p) (6D, 7F)
 Ernie: Thresh=  0.10000D-02 Tol=  0.10000D-05 Strict=F.
 There are    65 symmetry adapted cartesian basis functions of A'  symmetry.
 There are    26 symmetry adapted cartesian basis functions of A"  symmetry.
 There are    65 symmetry adapted basis functions of A'  symmetry.
 There are    26 symmetry adapted basis functions of A"  symmetry.
    91 basis functions,   149 primitive gaussians,    91 cartesian basis functions
    16 alpha electrons       16 beta electrons
       nuclear repulsion energy       111.8008217858 Hartrees.
 IExCor=  402 DFT=T Ex+Corr=B3LYP ExCW=0 ScaHFX=  0.200000
 ScaDFX=  0.800000  0.720000  1.000000  0.810000 ScalE2=  1.000000  1.000000
 IRadAn=      0 IRanWt=     -1 IRanGd=            0 ICorTp=0 IEmpDi=  4
 NAtoms=    7 NActive=    7 NUniq=    6 SFac= 1.36D+00 NAtFMM=   60 NAOKFM=F Big=F
 Integral buffers will be    131072 words long.
 Raffenetti 2 integral format.
 Two-electron integral symmetry is turned on.
 Leave Link  301 at Tue Sep 17 19:29:45 2024, MaxMem=   268435456 cpu:         0.1
 (Enter /g100_work/pMI24_ChiCa/g09d1/g09d01/d01/build-node-6-2-59348/src/main/l302.exe)
 NPDir=0 NMtPBC=     1 NCelOv=     1 NCel=       1 NClECP=     1 NCelD=      1
         NCelK=      1 NCelE2=     1 NClLst=     1 CellRange=     0.0.
 One-electron integrals computed using PRISM.
 One-electron integral symmetry used in STVInt
 NBasis=    91 RedAO= T EigKep=  4.30D-04  NBF=    65    26
 NBsUse=    91 1.00D-06 EigRej= -1.00D+00 NBFU=    65    26
 Precomputing XC quadrature grid using
 IXCGrd= 4 IRadAn=           0 IRanWt=          -1 IRanGd=           0 AccXCQ= 0.00D+00.
 Generated NRdTot=       0 NPtTot=           0 NUsed=           0 NTot=          32
 NSgBfM=    91    91    91    91    91 MxSgAt=     7 MxSgA2=     7.
 Leave Link  302 at Tue Sep 17 19:29:45 2024, MaxMem=   268435456 cpu:         1.3
 (Enter /g100_work/pMI24_ChiCa/g09d1/g09d01/d01/build-node-6-2-59348/src/main/l303.exe)
 DipDrv:  MaxL=1.
 Leave Link  303 at Tue Sep 17 19:29:45 2024, MaxMem=   268435456 cpu:         0.2
 (Enter /g100_work/pMI24_ChiCa/g09d1/g09d01/d01/build-node-6-2-59348/src/main/l401.exe)
 Initial guess from the checkpoint file:  "/g100_scratch/userexternal/ecabiati/g16_14420039/Gau-4812.chk"
 B after Tr=     0.000000    0.000000   -0.000000
         Rot=    0.997121   -0.000000    0.000000   -0.075825 Ang=  -8.70 deg.
 Guess basis will be translated and rotated to current coordinates.
 JPrj=2 DoOrth=T DoCkMO=T.
 Initial guess orbital symmetries:
       Occupied  (A') (A') (A') (A') (A') (A') (A') (A') (A") (A')
                 (A') (A') (A") (A") (A') (A')
       Virtual   (A') (A') (A') (A') (A') (A') (A') (A') (A') (A')
                 (A') (A') (A') (A') (A') (A') (A') (A') (A') (A')
                 (A') (A') (A') (A') (A') (A') (A') (A') (A') (A')
                 (A') (A') (A') (A') (A') (A') (A') (A') (A') (A')
                 (A') (A') (A') (A') (A') (A') (A') (A') (A') (A')
                 (A') (A') (A") (A") (A") (A") (A") (A") (A") (A")
                 (A") (A") (A") (A") (A") (A") (A") (A") (A") (A")
                 (A") (A") (A") (A") (A")
 The electronic state of the initial guess is 1-A'.
 Generating alternative initial guess.
 ExpMin= 4.38D-02 ExpMax= 5.48D+03 ExpMxC= 8.25D+02 IAcc=2 IRadAn=         4 AccDes= 0.00D+00
 Harris functional with IExCor=  402 and IRadAn=       4 diagonalized for initial guess.
 HarFok:  IExCor=  402 AccDes= 0.00D+00 IRadAn=         4 IDoV= 1 UseB2=F ITyADJ=14
 ICtDFT=  3500011 ScaDFX=  1.000000  1.000000  1.000000  1.000000
 FoFCou: FMM=F IPFlag=           0 FMFlag=      100000 FMFlg1=           0
         NFxFlg=           0 DoJE=T BraDBF=F KetDBF=T FulRan=T
         wScrn=  0.000000 ICntrl=     500 IOpCl=  0 I1Cent=   200000004 NGrid=           0
         NMat0=    1 NMatS0=      1 NMatT0=    0 NMatD0=    1 NMtDS0=    0 NMtDT0=    0
 Petite list used in FoFCou.
 Harris En= -228.753383288204    
 Leave Link  401 at Tue Sep 17 19:29:45 2024, MaxMem=   268435456 cpu:         1.8
 (Enter /g100_work/pMI24_ChiCa/g09d1/g09d01/d01/build-node-6-2-59348/src/main/l502.exe)
 Closed shell SCF:
 Using DIIS extrapolation, IDIIS=  1040.
 Integral symmetry usage will be decided dynamically.
 Keep R1 ints in memory in symmetry-blocked form, NReq=13364509.
 IVT=       46381 IEndB=       46381 NGot=   268435456 MDV=   263834430
 LenX=   263834430 LenY=   263825708
 Requested convergence on RMS density matrix=1.00D-08 within 128 cycles.
 Requested convergence on MAX density matrix=1.00D-06.
 Requested convergence on             energy=1.00D-06.
 No special actions if energy rises.
 FoFCou: FMM=F IPFlag=           0 FMFlag=           0 FMFlg1=           0
         NFxFlg=           0 DoJE=F BraDBF=F KetDBF=F FulRan=T
         wScrn=  0.000000 ICntrl=     600 IOpCl=  0 I1Cent=           0 NGrid=           0
         NMat0=    1 NMatS0=   4186 NMatT0=    0 NMatD0=    1 NMtDS0=    0 NMtDT0=    0
 Petite list used in FoFCou.

 Cycle   1  Pass 1  IDiag  1:
 E= -228.540089970914    
 DIIS: error= 3.64D-03 at cycle   1 NSaved=   1.
 NSaved= 1 IEnMin= 1 EnMin= -228.540089970914     IErMin= 1 ErrMin= 3.64D-03
 ErrMax= 3.64D-03  0.00D+00 EMaxC= 1.00D-01 BMatC= 2.01D-03 BMatP= 2.01D-03
 IDIUse=3 WtCom= 9.64D-01 WtEn= 3.64D-02
 Coeff-Com:  0.100D+01
 Coeff-En:   0.100D+01
 Coeff:      0.100D+01
 Gap=     0.414 Goal=   None    Shift=    0.000
 GapD=    0.414 DampG=2.000 DampE=1.000 DampFc=2.0000 IDamp=-1.
 RMSDP=1.08D-03 MaxDP=1.48D-02              OVMax= 2.16D-02

 Cycle   2  Pass 1  IDiag  1:
 E= -228.542467905884     Delta-E=       -0.002377934970 Rises=F Damp=F
 DIIS: error= 3.31D-03 at cycle   2 NSaved=   2.
 NSaved= 2 IEnMin= 2 EnMin= -228.542467905884     IErMin= 2 ErrMin= 3.31D-03
 ErrMax= 3.31D-03  0.00D+00 EMaxC= 1.00D-01 BMatC= 9.32D-04 BMatP= 2.01D-03
 IDIUse=3 WtCom= 9.67D-01 WtEn= 3.31D-02
 Coeff-Com:  0.360D+00 0.640D+00
 Coeff-En:   0.000D+00 0.100D+01
 Coeff:      0.349D+00 0.651D+00
 Gap=     0.177 Goal=   None    Shift=    0.000
 RMSDP=6.69D-04 MaxDP=1.29D-02 DE=-2.38D-03 OVMax= 2.22D-02

 Cycle   3  Pass 1  IDiag  1:
 E= -228.542219029782     Delta-E=        0.000248876101 Rises=F Damp=F
 DIIS: error= 4.44D-03 at cycle   3 NSaved=   3.
 NSaved= 3 IEnMin= 2 EnMin= -228.542467905884     IErMin= 2 ErrMin= 3.31D-03
 ErrMax= 4.44D-03  0.00D+00 EMaxC= 1.00D-01 BMatC= 1.17D-03 BMatP= 9.32D-04
 IDIUse=3 WtCom= 1.31D-01 WtEn= 8.69D-01
 Coeff-Com:  0.998D-02 0.527D+00 0.463D+00
 Coeff-En:   0.000D+00 0.558D+00 0.442D+00
 Coeff:      0.130D-02 0.554D+00 0.445D+00
 Gap=     0.176 Goal=   None    Shift=    0.000
 RMSDP=4.78D-04 MaxDP=6.87D-03 DE= 2.49D-04 OVMax= 1.33D-02

 Cycle   4  Pass 1  IDiag  1:
 E= -228.543128062325     Delta-E=       -0.000909032542 Rises=F Damp=F
 DIIS: error= 3.50D-04 at cycle   4 NSaved=   4.
 NSaved= 4 IEnMin= 4 EnMin= -228.543128062325     IErMin= 4 ErrMin= 3.50D-04
 ErrMax= 3.50D-04  0.00D+00 EMaxC= 1.00D-01 BMatC= 1.37D-05 BMatP= 9.32D-04
 IDIUse=3 WtCom= 9.96D-01 WtEn= 3.50D-03
 Coeff-Com: -0.122D-01 0.211D+00 0.187D+00 0.614D+00
 Coeff-En:   0.000D+00 0.000D+00 0.000D+00 0.100D+01
 Coeff:     -0.121D-01 0.210D+00 0.187D+00 0.615D+00
 Gap=     0.176 Goal=   None    Shift=    0.000
 RMSDP=5.57D-05 MaxDP=9.03D-04 DE=-9.09D-04 OVMax= 1.19D-03

 Cycle   5  Pass 1  IDiag  1:
 E= -228.543137342107     Delta-E=       -0.000009279782 Rises=F Damp=F
 DIIS: error= 2.33D-04 at cycle   5 NSaved=   5.
 NSaved= 5 IEnMin= 5 EnMin= -228.543137342107     IErMin= 5 ErrMin= 2.33D-04
 ErrMax= 2.33D-04  0.00D+00 EMaxC= 1.00D-01 BMatC= 3.79D-06 BMatP= 1.37D-05
 IDIUse=3 WtCom= 9.98D-01 WtEn= 2.33D-03
 Coeff-Com: -0.743D-02 0.701D-01 0.712D-01 0.363D+00 0.503D+00
 Coeff-En:   0.000D+00 0.000D+00 0.000D+00 0.177D+00 0.823D+00
 Coeff:     -0.741D-02 0.699D-01 0.711D-01 0.362D+00 0.504D+00
 Gap=     0.175 Goal=   None    Shift=    0.000
 RMSDP=2.45D-05 MaxDP=3.06D-04 DE=-9.28D-06 OVMax= 5.16D-04

 Cycle   6  Pass 1  IDiag  1:
 E= -228.543140384921     Delta-E=       -0.000003042814 Rises=F Damp=F
 DIIS: error= 4.09D-05 at cycle   6 NSaved=   6.
 NSaved= 6 IEnMin= 6 EnMin= -228.543140384921     IErMin= 6 ErrMin= 4.09D-05
 ErrMax= 4.09D-05  0.00D+00 EMaxC= 1.00D-01 BMatC= 2.11D-07 BMatP= 3.79D-06
 IDIUse=1 WtCom= 1.00D+00 WtEn= 0.00D+00
 Coeff-Com: -0.311D-02 0.251D-01 0.285D-01 0.165D+00 0.280D+00 0.504D+00
 Coeff:     -0.311D-02 0.251D-01 0.285D-01 0.165D+00 0.280D+00 0.504D+00
 Gap=     0.175 Goal=   None    Shift=    0.000
 RMSDP=4.55D-06 MaxDP=8.52D-05 DE=-3.04D-06 OVMax= 1.29D-04

 Cycle   7  Pass 1  IDiag  1:
 E= -228.543140542549     Delta-E=       -0.000000157628 Rises=F Damp=F
 DIIS: error= 6.31D-06 at cycle   7 NSaved=   7.
 NSaved= 7 IEnMin= 7 EnMin= -228.543140542549     IErMin= 7 ErrMin= 6.31D-06
 ErrMax= 6.31D-06  0.00D+00 EMaxC= 1.00D-01 BMatC= 7.07D-09 BMatP= 2.11D-07
 IDIUse=1 WtCom= 1.00D+00 WtEn= 0.00D+00
 Coeff-Com: -0.324D-04-0.223D-02-0.972D-03 0.471D-02 0.268D-01 0.179D+00
 Coeff-Com:  0.793D+00
 Coeff:     -0.324D-04-0.223D-02-0.972D-03 0.471D-02 0.268D-01 0.179D+00
 Coeff:      0.793D+00
 Gap=     0.175 Goal=   None    Shift=    0.000
 RMSDP=1.54D-06 MaxDP=3.36D-05 DE=-1.58D-07 OVMax= 1.85D-05

 Cycle   8  Pass 1  IDiag  1:
 E= -228.543140548807     Delta-E=       -0.000000006258 Rises=F Damp=F
 DIIS: error= 1.43D-06 at cycle   8 NSaved=   8.
 NSaved= 8 IEnMin= 8 EnMin= -228.543140548807     IErMin= 8 ErrMin= 1.43D-06
 ErrMax= 1.43D-06  0.00D+00 EMaxC= 1.00D-01 BMatC= 1.60D-10 BMatP= 7.07D-09
 IDIUse=1 WtCom= 1.00D+00 WtEn= 0.00D+00
 Coeff-Com:  0.390D-04-0.832D-03-0.873D-03-0.116D-02 0.131D-02 0.283D-01
 Coeff-Com:  0.152D+00 0.821D+00
 Coeff:      0.390D-04-0.832D-03-0.873D-03-0.116D-02 0.131D-02 0.283D-01
 Coeff:      0.152D+00 0.821D+00
 Gap=     0.175 Goal=   None    Shift=    0.000
 RMSDP=2.82D-07 MaxDP=4.25D-06 DE=-6.26D-09 OVMax= 4.67D-06

 Cycle   9  Pass 1  IDiag  1:
 E= -228.543140548946     Delta-E=       -0.000000000139 Rises=F Damp=F
 DIIS: error= 3.75D-07 at cycle   9 NSaved=   9.
 NSaved= 9 IEnMin= 9 EnMin= -228.543140548946     IErMin= 9 ErrMin= 3.75D-07
 ErrMax= 3.75D-07  0.00D+00 EMaxC= 1.00D-01 BMatC= 2.09D-11 BMatP= 1.60D-10
 IDIUse=1 WtCom= 1.00D+00 WtEn= 0.00D+00
 Coeff-Com:  0.275D-04-0.302D-03-0.421D-03-0.981D-03-0.119D-02 0.243D-02
 Coeff-Com:  0.230D-01 0.379D+00 0.598D+00
 Coeff:      0.275D-04-0.302D-03-0.421D-03-0.981D-03-0.119D-02 0.243D-02
 Coeff:      0.230D-01 0.379D+00 0.598D+00
 Gap=     0.175 Goal=   None    Shift=    0.000
 RMSDP=1.29D-07 MaxDP=2.88D-06 DE=-1.39D-10 OVMax= 1.68D-06

 Cycle  10  Pass 1  IDiag  1:
 E= -228.543140548969     Delta-E=       -0.000000000023 Rises=F Damp=F
 DIIS: error= 9.98D-08 at cycle  10 NSaved=  10.
 NSaved=10 IEnMin=10 EnMin= -228.543140548969     IErMin=10 ErrMin= 9.98D-08
 ErrMax= 9.98D-08  0.00D+00 EMaxC= 1.00D-01 BMatC= 8.17D-13 BMatP= 2.09D-11
 IDIUse=1 WtCom= 1.00D+00 WtEn= 0.00D+00
 Coeff-Com:  0.452D-05-0.168D-04-0.540D-04-0.177D-03-0.463D-03-0.161D-02
 Coeff-Com: -0.662D-02 0.463D-01 0.201D+00 0.762D+00
 Coeff:      0.452D-05-0.168D-04-0.540D-04-0.177D-03-0.463D-03-0.161D-02
 Coeff:     -0.662D-02 0.463D-01 0.201D+00 0.762D+00
 Gap=     0.175 Goal=   None    Shift=    0.000
 RMSDP=3.20D-08 MaxDP=7.19D-07 DE=-2.33D-11 OVMax= 3.26D-07

 Cycle  11  Pass 1  IDiag  1:
 E= -228.543140548970     Delta-E=       -0.000000000001 Rises=F Damp=F
 DIIS: error= 1.47D-08 at cycle  11 NSaved=  11.
 NSaved=11 IEnMin=11 EnMin= -228.543140548970     IErMin=11 ErrMin= 1.47D-08
 ErrMax= 1.47D-08  0.00D+00 EMaxC= 1.00D-01 BMatC= 2.22D-14 BMatP= 8.17D-13
 IDIUse=1 WtCom= 1.00D+00 WtEn= 0.00D+00
 Coeff-Com:  0.284D-07 0.600D-05 0.471D-05-0.137D-05-0.479D-04-0.387D-03
 Coeff-Com: -0.214D-02-0.501D-02 0.196D-01 0.181D+00 0.807D+00
 Coeff:      0.284D-07 0.600D-05 0.471D-05-0.137D-05-0.479D-04-0.387D-03
 Coeff:     -0.214D-02-0.501D-02 0.196D-01 0.181D+00 0.807D+00
 Gap=     0.175 Goal=   None    Shift=    0.000
 RMSDP=4.56D-09 MaxDP=7.42D-08 DE=-8.53D-13 OVMax= 9.57D-08

 SCF Done:  E(RB3LYP) =  -228.543140549     A.U. after   11 cycles
            NFock= 11  Conv=0.46D-08     -V/T= 2.0090
 KE= 2.265127758273D+02 PE=-7.671681111234D+02 EE= 2.003113729614D+02
 Leave Link  502 at Tue Sep 17 19:29:46 2024, MaxMem=   268435456 cpu:         8.4
 (Enter /g100_work/pMI24_ChiCa/g09d1/g09d01/d01/build-node-6-2-59348/src/main/l701.exe)
 Compute integral first derivatives.
 ... and contract with generalized density number  0.
 Leave Link  701 at Tue Sep 17 19:29:46 2024, MaxMem=   268435456 cpu:         1.5
 (Enter /g100_work/pMI24_ChiCa/g09d1/g09d01/d01/build-node-6-2-59348/src/main/l702.exe)
 L702 exits ... SP integral derivatives will be done elsewhere.
 Leave Link  702 at Tue Sep 17 19:29:46 2024, MaxMem=   268435456 cpu:         0.1
 (Enter /g100_work/pMI24_ChiCa/g09d1/g09d01/d01/build-node-6-2-59348/src/main/l703.exe)
 Compute integral first derivatives, UseDBF=F ICtDFT=           0.
 Integral derivatives from FoFJK, PRISM(SPDF).
 Calling FoFJK, ICntrl=      2127 FMM=F ISym2X=1 I1Cent= 0 IOpClX= 0 NMat=1 NMatS=1 NMatT=0.
 FoFJK:  IHMeth= 1 ICntrl=    2127 DoSepK=F KAlg= 0 I1Cent=   0 FoldK=F
 IRaf=         0 NMat=   1 IRICut=       1 DoRegI=T DoRafI=F ISym2E= 1.
 FoFCou: FMM=F IPFlag=           0 FMFlag=      100000 FMFlg1=         800
         NFxFlg=           0 DoJE=F BraDBF=F KetDBF=F FulRan=T
         wScrn=  0.000000 ICntrl=    2127 IOpCl=  0 I1Cent=           0 NGrid=           0
         NMat0=    1 NMatS0=      1 NMatT0=    0 NMatD0=    1 NMtDS0=    0 NMtDT0=    0
 Petite list used in FoFCou.
 Leave Link  703 at Tue Sep 17 19:29:46 2024, MaxMem=   268435456 cpu:         3.4
 (Enter /g100_work/pMI24_ChiCa/g09d1/g09d01/d01/build-node-6-2-59348/src/main/l716.exe)
 Dipole        = 5.25673417D-02-1.53911000D+00 2.22044605D-16
 ***** Axes restored to original set *****
 -------------------------------------------------------------------
 Center     Atomic                   Forces (Hartrees/Bohr)
 Number     Number              X              Y              Z
 -------------------------------------------------------------------
      1        6           0.000449269   -0.000000000   -0.006803695
      2        8          -0.002588717    0.000000000    0.017136213
      3        8           0.004925467   -0.000000000   -0.007456378
      4        6          -0.002757476   -0.000000000   -0.003626812
      5        1          -0.000983102    0.000000000    0.000332573
      6        1           0.000477280   -0.000582488    0.000209049
      7        1           0.000477280    0.000582488    0.000209049
 -------------------------------------------------------------------
 Cartesian Forces:  Max     0.017136213 RMS     0.004627852
 Leave Link  716 at Tue Sep 17 19:29:46 2024, MaxMem=   268435456 cpu:         0.1
 (Enter /g100_work/pMI24_ChiCa/g09d1/g09d01/d01/build-node-6-2-59348/src/main/l103.exe)

 GradGradGradGradGradGradGradGradGradGradGradGradGradGradGradGradGradGrad
 Berny optimization.
 Using GEDIIS/GDIIS optimizer.
 FormGI is forming the generalized inverse of G from B-inverse, IUseBI=4.
 Internal  Forces:  Max     0.017281969 RMS     0.004468474
 Search for a local minimum.
 Step number   3 out of a maximum of   31
 All quantities printed in internal units (Hartrees-Bohrs-Radians)
 RMS Force = .44685D-02 SwitMx=.10000D-02 MixMth= 1
 Mixed Optimization -- RFO/linear search
 Update second derivatives using D2CorX and points    1    2    3
 DE= -2.32D-03 DEPred=-3.09D-03 R= 7.49D-01
 TightC=F SS=  1.41D+00  RLast= 1.34D-01 DXNew= 8.4853D-01 4.0253D-01
 Trust test= 7.49D-01 RLast= 1.34D-01 DXMaxT set to 5.05D-01
 ITU=  1  1  0
 Use linear search instead of GDIIS.
     Eigenvalues ---    0.00766   0.00766   0.07218   0.07462   0.15953
     Eigenvalues ---    0.16000   0.16065   0.21230   0.27873   0.30156
     Eigenvalues ---    0.37230   0.37252   0.38537   0.55748   0.90798
 RFO step:  Lambda=-5.47669976D-04 EMin= 7.65947438D-03
 Quartic linear search produced a step of -0.15595.
 Iteration  1 RMS(Cart)=  0.01162756 RMS(Int)=  0.00007994
 Iteration  2 RMS(Cart)=  0.00008329 RMS(Int)=  0.00000569
 Iteration  3 RMS(Cart)=  0.00000000 RMS(Int)=  0.00000569
 ITry= 1 IFail=0 DXMaxC= 3.50D-02 DCOld= 1.00D+10 DXMaxT= 5.05D-01 DXLimC= 3.00D+00 Rises=F
 ClnCor:  largest displacement from symmetrization is 2.27D-11 for atom     5.
 Variable       Old X    -DE/DX   Delta X   Delta X   Delta X     New X
                                 (Linear)    (Quad)   (Total)
    R1        2.36175   0.01728   0.01652   0.00831   0.02483   2.38659
    R2        2.37691   0.00824  -0.00412   0.01269   0.00856   2.38547
    R3        2.94010   0.00386  -0.00818   0.02179   0.01360   2.95370
    R4        2.06728   0.00097  -0.00046   0.00346   0.00300   2.07029
[...]
                                                                X                                                                    
                                                                X                                                                    
                                                                X                                                                    
                                                                X                                                                    
                                                                X                                                                    
                                                                X                                                                    
 
 ***** Axes restored to original set *****
 -------------------------------------------------------------------
 Center     Atomic                   Forces (Hartrees/Bohr)
 Number     Number              X              Y              Z
 -------------------------------------------------------------------
      1        6           0.000033572    0.000000000   -0.000065004
      2        8           0.000005655   -0.000000000    0.000088178
      3        8          -0.000022051   -0.000000000   -0.000002905
      4        6          -0.000053004   -0.000000000   -0.000062536
      5        1           0.000022173   -0.000000000    0.000002834
      6        1           0.000006827   -0.000007123    0.000019717
      7        1           0.000006827    0.000007123    0.000019717
 -------------------------------------------------------------------
 Cartesian Forces:  Max     0.000088178 RMS     0.000032254
 Force constants in Cartesian coordinates: 
                1             2             3             4             5 
      1  0.607753D+00
      2  0.000000D+00  0.236218D+00
      3 -0.160404D+00  0.000000D+00  0.804078D+00
      4 -0.103212D+00  0.000000D+00  0.108307D-01  0.101428D+00
      5  0.000000D+00 -0.743676D-01  0.000000D+00  0.000000D+00  0.250602D-01
      6  0.917045D-03  0.000000D+00 -0.502822D+00 -0.362522D-01  0.000000D+00
      7 -0.390606D+00  0.000000D+00  0.173252D+00  0.448469D-02  0.000000D+00
      8  0.000000D+00 -0.769586D-01  0.000000D+00  0.000000D+00  0.263843D-01
      9  0.182891D+00  0.000000D+00 -0.210959D+00  0.683356D-01  0.000000D+00
     10 -0.102749D+00  0.000000D+00 -0.245768D-01 -0.228271D-02  0.000000D+00
     11  0.000000D+00 -0.846737D-01  0.000000D+00  0.000000D+00  0.231653D-01
     12 -0.216946D-01  0.000000D+00 -0.749829D-01 -0.329022D-01  0.000000D+00
     13 -0.145453D-01  0.000000D+00  0.266741D-01  0.470660D-02  0.000000D+00
     14  0.000000D+00 -0.215185D-02  0.000000D+00  0.000000D+00 -0.193986D-03
     15 -0.903714D-02  0.000000D+00  0.658787D-02 -0.739242D-03  0.000000D+00
     16  0.167889D-02  0.243943D-01 -0.128877D-01 -0.256237D-02 -0.316510D-02
     17 -0.443574D-02  0.967069D-03  0.327439D-03  0.127679D-02 -0.241330D-04
     18  0.366409D-02  0.147322D-01 -0.109512D-01 -0.463636D-02 -0.318293D-02
     19  0.167889D-02 -0.243943D-01 -0.128877D-01 -0.256237D-02  0.316510D-02
     20  0.443574D-02  0.967069D-03 -0.327439D-03 -0.127679D-02 -0.241330D-04
     21  0.366409D-02 -0.147322D-01 -0.109512D-01 -0.463636D-02  0.318293D-02
                6             7             8             9            10 
      6  0.624126D+00
      7  0.604330D-01  0.453477D+00
      8  0.000000D+00  0.000000D+00  0.280539D-01
      9 -0.728544D-01 -0.246794D+00  0.000000D+00  0.268609D+00
     10 -0.153051D-01 -0.574638D-01  0.000000D+00 -0.130918D-02  0.454519D+00
     11  0.000000D+00  0.000000D+00  0.177290D-01  0.000000D+00  0.000000D+00
     12 -0.452358D-01  0.172214D-01  0.000000D+00  0.941953D-02 -0.849963D-01
     13 -0.265042D-02 -0.104322D-01  0.000000D+00 -0.469606D-02 -0.202600D+00
     14  0.000000D+00  0.000000D+00  0.251368D-02  0.000000D+00  0.000000D+00
     15  0.214665D-02 -0.501916D-02  0.000000D+00  0.170551D-02  0.130105D+00
     16 -0.357116D-02  0.269920D-03 -0.332429D-02  0.786538D-03 -0.447118D-01
     17 -0.266634D-03  0.176834D-02  0.113888D-02 -0.174392D-02  0.774928D-02
     18 -0.268057D-02  0.453641D-03 -0.253230D-02  0.203986D-02 -0.195860D-02
     19 -0.357116D-02  0.269920D-03  0.332429D-02  0.786538D-03 -0.447118D-01
     20  0.266634D-03 -0.176834D-02  0.113888D-02  0.174392D-02 -0.774928D-02
     21 -0.268057D-02  0.453641D-03  0.253230D-02  0.203986D-02 -0.195860D-02
               11            12            13            14            15 
     11  0.517426D+00
     12  0.000000D+00  0.524626D+00
     13  0.000000D+00  0.126517D+00  0.220140D+00
     14 -0.493498D-01  0.000000D+00  0.000000D+00  0.469086D-01
     15  0.000000D+00 -0.148846D+00 -0.141554D+00  0.000000D+00  0.159865D+00
     16  0.108283D-01 -0.207276D-02  0.136527D-02 -0.213599D-01  0.131224D-01
     17 -0.212149D+00  0.122991D+00 -0.643979D-03  0.113671D-02 -0.126936D-02
     18  0.127636D+00 -0.132490D+00 -0.214552D-02  0.159762D-01 -0.107292D-01
     19 -0.108283D-01 -0.207276D-02  0.136527D-02  0.213599D-01  0.131224D-01
     20 -0.212149D+00 -0.122991D+00  0.643979D-03  0.113671D-02  0.126936D-02
     21 -0.127636D+00 -0.132490D+00 -0.214552D-02 -0.159762D-01 -0.107292D-01
               16            17            18            19            20 
     16  0.446050D-01
     17 -0.654402D-02  0.230509D+00
     18  0.396750D-02 -0.136334D+00  0.142697D+00
     19 -0.644918D-03  0.829327D-03  0.655245D-03  0.446050D-01
     20 -0.829327D-03 -0.215786D-01 -0.162952D-01  0.654402D-02  0.230509D+00
     21  0.655245D-03  0.162952D-01  0.121141D-01  0.396750D-02  0.136334D+00
               21 
     21  0.142697D+00
 FormGI is forming the generalized inverse of G from B-inverse, IUseBI=4.
 Force constants in internal coordinates: 
                1             2             3             4             5 
      1  0.626618D+00
      2  0.933985D-01  0.624596D+00
      3  0.443383D-01  0.445472D-01  0.214961D+00
      4  0.368502D-02  0.152958D-02  0.149101D-02  0.334651D+00
      5  0.125325D-02  0.243720D-02  0.243985D-02  0.240088D-02  0.329971D+00
      6  0.125325D-02  0.243720D-02  0.243985D-02  0.240088D-02  0.262663D-02
      7  0.232182D-01  0.228766D-01 -0.423977D-01 -0.231935D-02 -0.195156D-02
      8  0.238260D-01 -0.458656D-01  0.222083D-01 -0.116176D-01  0.752253D-02
      9 -0.470442D-01  0.229890D-01  0.201894D-01  0.139369D-01 -0.557097D-02
     10 -0.196701D-02  0.116285D-01  0.113434D-01 -0.294342D-02 -0.536264D-02
     11  0.504689D-02 -0.237149D-02  0.998596D-02 -0.573363D-02 -0.198426D-02
     12  0.504689D-02 -0.237149D-02  0.998596D-02 -0.573363D-02 -0.594317D-02
     13 -0.205894D-02 -0.398297D-02 -0.103362D-01  0.744249D-02  0.730842D-02
     14 -0.205894D-02 -0.398297D-02 -0.103362D-01  0.744249D-02 -0.872017D-03
     15 -0.411361D-02  0.572017D-03 -0.117135D-01 -0.326156D-03  0.743725D-02
     16  0.000000D+00  0.000000D+00  0.000000D+00  0.000000D+00 -0.577669D-02
     17 -0.442137D-03  0.103097D-02  0.128712D-02  0.352645D-02 -0.144888D-02
     18  0.442137D-03 -0.103097D-02 -0.128711D-02 -0.352645D-02  0.294558D-02
     19  0.000000D+00  0.000000D+00  0.000000D+00  0.000000D+00 -0.252198D-02
     20 -0.442137D-03  0.103097D-02  0.128712D-02  0.352645D-02  0.180584D-02
     21  0.442137D-03 -0.103097D-02 -0.128712D-02 -0.352645D-02  0.620029D-02
                6             7             8             9            10 
      6  0.329971D+00
      7 -0.195156D-02  0.195951D+00
      8  0.752253D-02 -0.992425D-01  0.168011D+00
      9 -0.557097D-02 -0.967081D-01 -0.687687D-01  0.165477D+00
     10 -0.536264D-02 -0.505627D-02 -0.172697D-01  0.223260D-01  0.926045D-01
     11 -0.594317D-02 -0.138348D-02  0.111806D-01 -0.979709D-02 -0.188321D-01
     12 -0.198426D-02 -0.138348D-02  0.111806D-01 -0.979709D-02 -0.188321D-01
     13 -0.872017D-03  0.282852D-02  0.205488D-02 -0.488340D-02 -0.336469D-01
     14  0.730842D-02  0.282852D-02  0.205488D-02 -0.488340D-02 -0.336469D-01
     15  0.743725D-02  0.251513D-02 -0.881780D-02  0.630268D-02  0.847093D-02
     16  0.577669D-02  0.000000D+00  0.000000D+00  0.000000D+00  0.000000D+00
     17 -0.294558D-02 -0.718068D-03 -0.115807D-02  0.187614D-02  0.581064D-02
     18  0.144888D-02  0.718068D-03  0.115807D-02 -0.187614D-02 -0.581064D-02
     19  0.252198D-02  0.000000D+00  0.000000D+00  0.000000D+00  0.000000D+00
     20 -0.620029D-02 -0.718068D-03 -0.115807D-02  0.187614D-02  0.581064D-02
     21 -0.180584D-02  0.718068D-03  0.115807D-02 -0.187614D-02 -0.581064D-02
               11            12            13            14            15 
     11  0.892437D-01
     12 -0.112509D-01  0.892437D-01
     13 -0.348095D-01  0.816240D-02  0.522796D-01
     14  0.816240D-02 -0.348095D-01  0.499739D-02  0.522796D-01
     15 -0.332137D-01 -0.332137D-01  0.485136D-02  0.485136D-02  0.501324D-01
     16 -0.100201D-01  0.100201D-01 -0.898931D-02  0.898931D-02  0.000000D+00
     17 -0.527161D-02  0.167354D-03  0.109526D-01 -0.134937D-02 -0.110393D-01
     18 -0.167354D-03  0.527161D-02  0.134937D-02 -0.109526D-01  0.110393D-01
     19 -0.699674D-03  0.699674D-03 -0.120100D-01  0.120100D-01  0.000000D+00
     20  0.404880D-02 -0.915306D-02  0.793195D-02  0.167131D-02 -0.110393D-01
     21  0.915306D-02 -0.404880D-02 -0.167131D-02 -0.793195D-02  0.110393D-01
               16            17            18            19            20 
     16  0.263024D-01
     17  0.807493D-02  0.221417D-01
     18  0.807493D-02  0.582287D-02  0.221417D-01
     19 -0.169470D-02 -0.173490D-01 -0.173490D-01  0.247321D-01
     20 -0.199222D-01 -0.328217D-02 -0.196010D-01  0.907782D-02  0.257178D-01
     21 -0.199222D-01 -0.196010D-01 -0.328217D-02  0.907782D-02  0.939895D-02
               21 
     21  0.257178D-01
 Leave Link  716 at Tue Sep 17 19:29:55 2024, MaxMem=   268435456 cpu:         0.2
 (Enter /g100_work/pMI24_ChiCa/g09d1/g09d01/d01/build-node-6-2-59348/src/main/l103.exe)

 GradGradGradGradGradGradGradGradGradGradGradGradGradGradGradGradGradGrad
 Berny optimization.
 Red2BG is reusing G-inverse.
 Internal  Forces:  Max     0.000089447 RMS     0.000023800
 Search for a local minimum.
 Step number   1 out of a maximum of    2
 All quantities printed in internal units (Hartrees-Bohrs-Radians)
 Second derivative matrix not updated -- analytic derivatives used.
 ITU=  0
     Eigenvalues ---   -0.00002   0.05403   0.05810   0.07687   0.11051
     Eigenvalues ---    0.11997   0.13015   0.18386   0.22699   0.32065
     Eigenvalues ---    0.32820   0.33495   0.33996   0.54892   0.72960
 Eigenvalue     1 is  -2.07D-05 should be greater than     0.000000 Eigenvector:
                          D3        D2        D6        D5        D1
   1                    0.43699   0.43699   0.40430   0.40430   0.39637
                          D4        A5        A6        A8        A7
   1                    0.36368   0.02147  -0.02147  -0.02050   0.02050
 Angle between quadratic step and forces=  43.30 degrees.
 Linear search not attempted -- first point.
 Iteration  1 RMS(Cart)=  0.00007668 RMS(Int)=  0.00000001
 Iteration  2 RMS(Cart)=  0.00000001 RMS(Int)=  0.00000000
 ITry= 1 IFail=0 DXMaxC= 1.46D-04 DCOld= 1.00D+10 DXMaxT= 3.00D-01 DXLimC= 3.00D+00 Rises=F
 ClnCor:  largest displacement from symmetrization is 5.58D-10 for atom     7.
 Variable       Old X    -DE/DX   Delta X   Delta X   Delta X     New X
                                 (Linear)    (Quad)   (Total)
    R1        2.38406   0.00009   0.00000   0.00013   0.00013   2.38420
    R2        2.38566  -0.00002   0.00000  -0.00005  -0.00005   2.38561
    R3        2.95505   0.00003   0.00000   0.00014   0.00014   2.95520
    R4        2.07024  -0.00002   0.00000  -0.00005  -0.00005   2.07019
    R5        2.07487  -0.00002   0.00000  -0.00007  -0.00007   2.07480
    R6        2.07487  -0.00002   0.00000  -0.00007  -0.00007   2.07480
    A1        2.24650   0.00000   0.00000   0.00001   0.00001   2.24652
    A2        2.02995   0.00002   0.00000   0.00006   0.00006   2.03002
    A3        2.00673  -0.00002   0.00000  -0.00008  -0.00008   2.00665
    A4        1.95042  -0.00001   0.00000  -0.00013  -0.00013   1.95029
    A5        1.91241  -0.00001   0.00000  -0.00012  -0.00012   1.91229
    A6        1.91241  -0.00001   0.00000  -0.00012  -0.00012   1.91229
    A7        1.91014   0.00001   0.00000   0.00009   0.00009   1.91023
    A8        1.91014   0.00001   0.00000   0.00009   0.00009   1.91023
    A9        1.86640   0.00002   0.00000   0.00021   0.00021   1.86660
    D1        0.00000   0.00000   0.00000  -0.00000   0.00000   0.00000
    D2        2.12025  -0.00000   0.00000  -0.00005  -0.00005   2.12020
    D3       -2.12025   0.00000   0.00000   0.00005   0.00005  -2.12020
    D4        3.14159   0.00000   0.00000  -0.00000   0.00000   3.14159
    D5       -1.02134  -0.00000   0.00000  -0.00005  -0.00005  -1.02139
    D6        1.02134   0.00000   0.00000   0.00005   0.00005   1.02139
         Item               Value     Threshold  Converged?
 Maximum Force            0.000089     0.000450     YES
 RMS     Force            0.000024     0.000300     YES
 Maximum Displacement     0.000146     0.001800     YES
 RMS     Displacement     0.000077     0.001200     YES
 Predicted change in Energy=-1.694747D-08
 Optimization completed.
    -- Stationary point found.
                           ----------------------------
                           !   Optimized Parameters   !
                           ! (Angstroms and Degrees)  !
 --------------------------                            --------------------------
 ! Name  Definition              Value          Derivative Info.                !
 --------------------------------------------------------------------------------
 ! R1    R(1,2)                  1.2616         -DE/DX =    0.0001              !
 ! R2    R(1,3)                  1.2624         -DE/DX =    0.0                 !
 ! R3    R(1,4)                  1.5637         -DE/DX =    0.0                 !
 ! R4    R(4,5)                  1.0955         -DE/DX =    0.0                 !
 ! R5    R(4,6)                  1.098          -DE/DX =    0.0                 !
 ! R6    R(4,7)                  1.098          -DE/DX =    0.0                 !
 ! A1    A(2,1,3)              128.7151         -DE/DX =    0.0                 !
 ! A2    A(2,1,4)              116.3076         -DE/DX =    0.0                 !
 ! A3    A(3,1,4)              114.9773         -DE/DX =    0.0                 !
 ! A4    A(1,4,5)              111.751          -DE/DX =    0.0                 !
 ! A5    A(1,4,6)              109.5732         -DE/DX =    0.0                 !
 ! A6    A(1,4,7)              109.5732         -DE/DX =    0.0                 !
 ! A7    A(5,4,6)              109.4429         -DE/DX =    0.0                 !
 ! A8    A(5,4,7)              109.4429         -DE/DX =    0.0                 !
 ! A9    A(6,4,7)              106.9368         -DE/DX =    0.0                 !
 ! D1    D(2,1,4,5)              0.0            -DE/DX =    0.0                 !
 ! D2    D(2,1,4,6)            121.4815         -DE/DX =    0.0                 !
 ! D3    D(2,1,4,7)           -121.4815         -DE/DX =    0.0                 !
 ! D4    D(3,1,4,5)            180.0            -DE/DX =    0.0                 !
 ! D5    D(3,1,4,6)            -58.5185         -DE/DX =    0.0                 !
 ! D6    D(3,1,4,7)             58.5185         -DE/DX =    0.0                 !
 --------------------------------------------------------------------------------
 GradGradGradGradGradGradGradGradGradGradGradGradGradGradGradGradGradGrad

 Leave Link  103 at Tue Sep 17 19:29:55 2024, MaxMem=   268435456 cpu:         0.9
 (Enter /g100_work/pMI24_ChiCa/g09d1/g09d01/d01/build-node-6-2-59348/src/main/l9999.exe)
 1\1\GINC-R500N002\Freq\RB3LYP\6-31+G(d,p)\C2H3O2(1-)\ECABIATI\17-Sep-2
 024\0\\#P Geom=AllCheck Guess=TCheck SCRF=Check GenChk RB3LYP/6-31+G(d
 ,p) Freq\\ch3coo- gas\\-1,1\C,0.0484817392,0.,0.0714473121\O,-0.038980
 5811,0.,1.330002855\O,1.0858867234,0.,-0.6479506301\C,-1.3018842643,0.
 ,-0.7171044842\H,-2.1655705905,0.,-0.0431439903\H,-1.3470908194,0.8822
 52407,-1.3691255312\H,-1.3470908194,-0.882252407,-1.3691255312\\Versio
 n=EM64L-G09RevD.01\State=1-A'\HF=-228.5434749\RMSD=1.989e-09\RMSF=3.22
 5e-05\ZeroPoint=0.0479312\Thermal=0.052411\Dipole=-1.3313388,0.,-0.767
 2191\DipoleDeriv=1.8349267,0.,-0.1971927,0.,0.0514488,0.,-0.2159086,0.
 ,2.0697728,-0.8009935,0.,-0.0488204,0.,-0.5316021,0.,0.1149964,0.,-1.7
 97691,-1.5283158,0.,0.5186216,0.,-0.5333111,0.,0.3779706,0.,-1.0890349
 ,-0.3565964,0.,-0.3361951,0.,0.2030979,0.,-0.3620149,0.,-0.0505949,-0.
 1938438,0.,0.071305,0.,0.0540565,0.,0.1547019,0.,-0.0314694,0.0224114,
 -0.0190707,-0.0038592,0.0610456,-0.121845,0.1573911,-0.0348727,0.11058
 61,-0.0504913,0.0224114,0.0190707,-0.0038592,-0.0610456,-0.121845,-0.1
 573911,-0.0348727,-0.1105861,-0.0504913\Polar=49.2810102,0.,30.581236,
 2.2104595,0.,48.7314166\PG=CS [SG(C2H1O2),X(H2)]\NImag=0\\0.60775309,0
 .,0.23621764,-0.16040432,0.,0.80407836,-0.10321151,0.,0.01083074,0.101
 42767,0.,-0.07436762,0.,0.,0.02506023,0.00091705,0.,-0.50282170,-0.036
 25217,0.,0.62412640,-0.39060557,0.,0.17325175,0.00448469,0.,0.06043301
 ,0.45347711,0.,-0.07695864,0.,0.,0.02638430,0.,0.,0.02805387,0.1828908
 3,0.,-0.21095915,0.06833561,0.,-0.07285437,-0.24679427,0.,0.26860876,-
 0.10274853,0.,-0.02457682,-0.00228271,0.,-0.01530514,-0.05746385,0.,-0
 .00130918,0.45451865,0.,-0.08467367,0.,0.,0.02316534,0.,0.,0.01772903,
 0.,0.,0.51742616,-0.02169459,0.,-0.07498294,-0.03290223,0.,-0.04523585
 ,0.01722139,0.,0.00941953,-0.08499629,0.,0.52462559,-0.01454526,0.,0.0
 2667412,0.00470660,0.,-0.00265042,-0.01043222,0.,-0.00469606,-0.202600
 04,0.,0.12651723,0.22014039,0.,-0.00215185,0.,0.,-0.00019399,0.,0.,0.0
 0251368,0.,0.,-0.04934983,0.,0.,0.04690857,-0.00903714,0.,0.00658787,-
 0.00073924,0.,0.00214665,-0.00501916,0.,0.00170551,0.13010463,0.,-0.14
 884642,-0.14155381,0.,0.15986487,0.00167889,0.02439433,-0.01288773,-0.
 00256237,-0.00316510,-0.00357116,0.00026992,-0.00332429,0.00078654,-0.
 04471176,0.01082831,-0.00207276,0.00136527,-0.02135990,0.01312236,0.04
 460497,-0.00443574,0.00096707,0.00032744,0.00127679,-0.00002413,-0.000
 26663,0.00176834,0.00113888,-0.00174392,0.00774928,-0.21214851,0.12299
 123,-0.00064398,0.00113671,-0.00126936,-0.00654402,0.23050855,0.003664
 09,0.01473221,-0.01095122,-0.00463636,-0.00318293,-0.00268057,0.000453
 64,-0.00253230,0.00203986,-0.00195860,0.12763606,-0.13248996,-0.002145
 52,0.01597621,-0.01072924,0.00396750,-0.13633401,0.14269704,0.00167889
 ,-0.02439433,-0.01288773,-0.00256237,0.00316510,-0.00357116,0.00026992
 ,0.00332429,0.00078654,-0.04471176,-0.01082831,-0.00207276,0.00136527,
 0.02135990,0.01312236,-0.00064492,0.00082933,0.00065525,0.04460497,0.0
 0443574,0.00096707,-0.00032744,-0.00127679,-0.00002413,0.00026663,-0.0
 0176834,0.00113888,0.00174392,-0.00774928,-0.21214851,-0.12299123,0.00
 064398,0.00113671,0.00126936,-0.00082933,-0.02157856,-0.01629525,0.006
 54402,0.23050855,0.00366409,-0.01473221,-0.01095122,-0.00463636,0.0031
 8293,-0.00268057,0.00045364,0.00253230,0.00203986,-0.00195860,-0.12763
 606,-0.13248996,-0.00214552,-0.01597621,-0.01072924,0.00065525,0.01629
 525,0.01211408,0.00396750,0.13633401,0.14269704\\-0.00003357,0.,0.0000
 6500,-0.00000566,0.,-0.00008818,0.00002205,0.,0.00000291,0.00005300,0.
 ,0.00006254,-0.00002217,0.,-0.00000283,-0.00000683,0.00000712,-0.00001
 972,-0.00000683,-0.00000712,-0.00001972\\\@


 TRUTH, IN SCIENCE, CAN BE DEFINED AS THE WORKING HYPOTHESIS 
 BEST FITTED TO OPEN THE WAY TO THE NEXT BETTER ONE.

                              -- KONRAD LORENZ
 Job cpu time:       0 days  0 hours  0 minutes 53.2 seconds.
 File lengths (MBytes):  RWF=     10 Int=      0 D2E=      0 Chk=      2 Scr=      1
 Normal termination of Gaussian 09 at Tue Sep 17 19:29:55 2024.
