 Entering Gaussian System, Link 0=/g100_work/pMI24_ChiCa/g09d1/g09d01/d01/build-node-6-2-59348/src/main/g09
 Input=geom.com
 Output=geom.log
 Initial command:
 /g100_work/pMI24_ChiCa/g09d1/g09d01/d01/build-node-6-2-59348/src/main/l1.exe "/g100_scratch/userexternal/ecabiati/g16_14416499/Gau-53286.inp" -scrdir="/g100_scratch/userexternal/ecabiati/g16_14416499/"
 Entering Link 1 = /g100_work/pMI24_ChiCa/g09d1/g09d01/d01/build-node-6-2-59348/src/main/l1.exe PID=     53287.
  
 Copyright (c) 1988,1990,1992,1993,1995,1998,2003,2009,2013,
            Gaussian, Inc.  All Rights Reserved.
  
 This is part of the Gaussian(R) 09 program.  It is based on
 the Gaussian(R) 03 system (copyright 2003, Gaussian, Inc.),
 the Gaussian(R) 98 system (copyright 1998, Gaussian, Inc.),
 the Gaussian(R) 94 system (copyright 1995, Gaussian, Inc.),
 the Gaussian 92(TM) system (copyright 1992, Gaussian, Inc.),
 the Gaussian 90(TM) system (copyright 1990, Gaussian, Inc.),
 the Gaussian 88(TM) system (copyright 1988, Gaussian, Inc.),
 the Gaussian 86(TM) system (copyright 1986, Carnegie Mellon
 University), and the Gaussian 82(TM) system (copyright 1983,
 Carnegie Mellon University). Gaussian is a federally registered
 trademark of Gaussian, Inc.
  
 This software contains proprietary and confidential information,
 including trade secrets, belonging to Gaussian, Inc.
  
 This software is provided under written license and may be
 used, copied, transmitted, or stored only in accord with that
 written license.
  
 The following legend is applicable only to US Government
 contracts under FAR:
  
                    RESTRICTED RIGHTS LEGEND
  
 Use, reproduction and disclosure by the US Government is
 subject to restrictions as set forth in subparagraphs (a)
 and (c) of the Commercial Computer Software - Restricted
 Rights clause in FAR 52.227-19.
  
 Gaussian, Inc.
 340 Quinnipiac St., Bldg. 40, Wallingford CT 06492
  
  
 ---------------------------------------------------------------
 Warning -- This program may not be used in any manner that
 competes with the business of Gaussian, Inc. or will provide
 assistance to any competitor of Gaussian, Inc.  The licensee
 of this program is prohibited from giving any competitor of
 Gaussian, Inc. access to this program.  By using this program,
 the user acknowledges that Gaussian, Inc. is engaged in the
 business of creating and licensing software in the field of
 computational chemistry and represents and warrants to the
 licensee that it is not a competitor of Gaussian, Inc. and that
 it will not use this program in any manner prohibited above.
 ---------------------------------------------------------------
  

 Cite this work as:
 Gaussian 09, Revision D.01,
 M. J. Frisch, G. W. Trucks, H. B. Schlegel, G. E. Scuseria, 
 M. A. Robb, J. R. Cheeseman, G. Scalmani, V. Barone, B. Mennucci, 
 G. A. Petersson, H. Nakatsuji, M. Caricato, X. Li, H. P. Hratchian, 
 A. F. Izmaylov, J. Bloino, G. Zheng, J. L. Sonnenberg, M. Hada, 
 M. Ehara, K. Toyota, R. Fukuda, J. Hasegawa, M. Ishida, T. Nakajima, 
 Y. Honda, O. Kitao, H. Nakai, T. Vreven, J. A. Montgomery, Jr., 
 J. E. Peralta, F. Ogliaro, M. Bearpark, J. J. Heyd, E. Brothers, 
 K. N. Kudin, V. N. Staroverov, T. Keith, R. Kobayashi, J. Normand, 
 K. Raghavachari, A. Rendell, J. C. Burant, S. S. Iyengar, J. Tomasi, 
 M. Cossi, N. Rega, J. M. Millam, M. Klene, J. E. Knox, J. B. Cross, 
 V. Bakken, C. Adamo, J. Jaramillo, R. Gomperts, R. E. Stratmann, 
 O. Yazyev, A. J. Austin, R. Cammi, C. Pomelli, J. W. Ochterski, 
 R. L. Martin, K. Morokuma, V. G. Zakrzewski, G. A. Voth, 
 P. Salvador, J. J. Dannenberg, S. Dapprich, A. D. Daniels, 
 O. Farkas, J. B. Foresman, J. V. Ortiz, J. Cioslowski, 
 and D. J. Fox, Gaussian, Inc., Wallingford CT, 2013.
 
 ******************************************
 Gaussian 09:  EM64L-G09RevD.01 24-Apr-2013
                17-Sep-2024 
 ******************************************
 %nproc=24
 Will use up to   24 processors via shared memory.
 %mem=2Gb
 -------------------------------------------------
 #p B3LYP/6-31+g(d,p) opt scrf=(smd,solvent=water)
 -------------------------------------------------
 1/14=-1,18=20,19=15,26=3,38=1/1,3;
 2/9=110,12=2,17=6,18=5,40=1/2;
 3/5=1,6=6,7=111,11=2,16=1,25=1,30=1,70=32201,71=1,72=1,74=-5/1,2,3;
 4//1;
 5/5=2,38=5,53=1/2;
 6/7=2,8=2,9=2,10=2,28=1/1;
 7//1,2,3,16;
 1/14=-1,18=20,19=15,26=3/3(2);
 2/9=110/2;
 99//99;
 2/9=110/2;
 3/5=1,6=6,7=111,11=2,16=1,25=1,30=1,70=32205,71=1,72=1,74=-5/1,2,3;
 4/5=5,16=3,69=1/1;
 5/5=2,38=5,53=1/2;
 7//1,2,3,16;
 1/14=-1,18=20,19=15,26=3/3(-5);
 2/9=110/2;
 6/7=2,8=2,9=2,10=2,19=2,28=1/1;
 99/9=1/99;
 Leave Link    1 at Tue Sep 17 13:12:12 2024, MaxMem=   268435456 cpu:         0.2
 (Enter /g100_work/pMI24_ChiCa/g09d1/g09d01/d01/build-node-6-2-59348/src/main/l101.exe)
 -----------
 ch3coo- sol
 -----------
 Symbolic Z-matrix:
 Charge = -1 Multiplicity = 1
 c
 o                    1    oc2
 o                    1    oc3      2    oco3
 c                    1    cc4      3    cco4     2    dih4     0
 h                    4    hc5      1    hcc5     3    dih5     0
 h                    4    hc6      1    hcc6     5    dih6     0
 h                    4    hc7      1    hcc7     5    dih7     0
       Variables:
  oc2                   1.4                      
  oc3                   1.22                     
  oco3                120.                       
  cc4                   1.5                      
  cco4                120.                       
  dih4                180.                       
  hc5                   1.07                     
  hcc5                109.471                    
  dih5                180.                       
  hc6                   1.07                     
  hcc6                109.471                    
  dih6                120.                       
  hc7                   1.07                     
  hcc7                109.471                    
  dih7                240.                       
 
     3 tetrahedral angles replaced.
 NAtoms=      7 NQM=        7 NQMF=       0 NMMI=      0 NMMIF=      0
                NMic=       0 NMicF=      0.
                    Isotopes and Nuclear Properties:
 (Nuclear quadrupole moments (NQMom) in fm**2, nuclear magnetic moments (NMagM)
  in nuclear magnetons)

  Atom         1           2           3           4           5           6           7
 IAtWgt=          12          16          16          12           1           1           1
 AtmWgt=  12.0000000  15.9949146  15.9949146  12.0000000   1.0078250   1.0078250   1.0078250
 NucSpn=           0           0           0           0           1           1           1
 AtZEff=   0.0000000   0.0000000   0.0000000   0.0000000   0.0000000   0.0000000   0.0000000
 NQMom=    0.0000000   0.0000000   0.0000000   0.0000000   0.0000000   0.0000000   0.0000000
 NMagM=    0.0000000   0.0000000   0.0000000   0.0000000   2.7928460   2.7928460   2.7928460
 AtZNuc=   6.0000000   8.0000000   8.0000000   6.0000000   1.0000000   1.0000000   1.0000000
 Leave Link  101 at Tue Sep 17 13:12:12 2024, MaxMem=   268435456 cpu:         0.2
 (Enter /g100_work/pMI24_ChiCa/g09d1/g09d01/d01/build-node-6-2-59348/src/main/l103.exe)

 GradGradGradGradGradGradGradGradGradGradGradGradGradGradGradGradGradGrad
 Berny optimization.
 Initialization pass.
                           ----------------------------
                           !    Initial Parameters    !
                           ! (Angstroms and Degrees)  !
 --------------------------                            --------------------------
 ! Name  Definition              Value          Derivative Info.                !
 --------------------------------------------------------------------------------
 ! R1    R(1,2)                  1.4            estimate D2E/DX2                !
 ! R2    R(1,3)                  1.22           estimate D2E/DX2                !
 ! R3    R(1,4)                  1.5            estimate D2E/DX2                !
 ! R4    R(4,5)                  1.07           estimate D2E/DX2                !
 ! R5    R(4,6)                  1.07           estimate D2E/DX2                !
 ! R6    R(4,7)                  1.07           estimate D2E/DX2                !
 ! A1    A(2,1,3)              120.0            estimate D2E/DX2                !
 ! A2    A(2,1,4)              120.0            estimate D2E/DX2                !
 ! A3    A(3,1,4)              120.0            estimate D2E/DX2                !
 ! A4    A(1,4,5)              109.4712         estimate D2E/DX2                !
 ! A5    A(1,4,6)              109.4712         estimate D2E/DX2                !
 ! A6    A(1,4,7)              109.4712         estimate D2E/DX2                !
 ! A7    A(5,4,6)              109.4712         estimate D2E/DX2                !
 ! A8    A(5,4,7)              109.4712         estimate D2E/DX2                !
 ! A9    A(6,4,7)              109.4712         estimate D2E/DX2                !
 ! D1    D(2,1,4,5)              0.0            estimate D2E/DX2                !
 ! D2    D(2,1,4,6)            120.0            estimate D2E/DX2                !
 ! D3    D(2,1,4,7)           -120.0            estimate D2E/DX2                !
 ! D4    D(3,1,4,5)            180.0            estimate D2E/DX2                !
 ! D5    D(3,1,4,6)            -60.0            estimate D2E/DX2                !
 ! D6    D(3,1,4,7)             60.0            estimate D2E/DX2                !
 --------------------------------------------------------------------------------
 Trust Radius=3.00D-01 FncErr=1.00D-07 GrdErr=1.00D-06
 Number of steps in this run=     31 maximum allowed number of steps=    100.
 GradGradGradGradGradGradGradGradGradGradGradGradGradGradGradGradGradGrad

 Leave Link  103 at Tue Sep 17 13:12:12 2024, MaxMem=   268435456 cpu:         0.1
 (Enter /g100_work/pMI24_ChiCa/g09d1/g09d01/d01/build-node-6-2-59348/src/main/l202.exe)
                          Input orientation:                          
 ---------------------------------------------------------------------
 Center     Atomic      Atomic             Coordinates (Angstroms)
 Number     Number       Type             X           Y           Z
 ---------------------------------------------------------------------
      1          6           0        0.000000    0.000000    0.000000
      2          8           0        0.000000    0.000000    1.400000
      3          8           0        1.056551    0.000000   -0.610000
      4          6           0       -1.299038    0.000000   -0.750000
      5          1           0       -2.112323    0.000000   -0.054682
      6          1           0       -1.355719    0.873651   -1.365159
      7          1           0       -1.355719   -0.873651   -1.365159
 ---------------------------------------------------------------------
                    Distance matrix (angstroms):
                    1          2          3          4          5
     1  C    0.000000
     2  O    1.400000   0.000000
     3  O    1.220000   2.270771   0.000000
     4  C    1.500000   2.511971   2.359746   0.000000
     5  H    2.113031   2.564763   3.217164   1.070000   0.000000
     6  H    2.113031   3.201147   2.674431   1.070000   1.747303
     7  H    2.113031   3.201147   2.674431   1.070000   1.747303
                    6          7
     6  H    0.000000
     7  H    1.747303   0.000000
 Stoichiometry    C2H3O2(1-)
 Framework group  CS[SG(C2HO2),X(H2)]
 Deg. of freedom    10
 Full point group                 CS      NOp   2
 Largest Abelian subgroup         CS      NOp   2
 Largest concise Abelian subgroup CS      NOp   2
                         Standard orientation:                         
 ---------------------------------------------------------------------
 Center     Atomic      Atomic             Coordinates (Angstroms)
 Number     Number       Type             X           Y           Z
 ---------------------------------------------------------------------
      1          6           0        0.000000    0.137932   -0.000000
      2          8           0        1.363881    0.453889   -0.000000
      3          8           0       -0.832709    1.029558   -0.000000
      4          6           0       -0.437479   -1.296854    0.000000
      5          1           0        0.423446   -1.932235    0.000000
      6          1           0       -1.023975   -1.490904    0.873651
      7          1           0       -1.023975   -1.490904   -0.873651
 ---------------------------------------------------------------------
 Rotational constants (GHZ):     11.7157287      9.3879396      5.3825204
 Leave Link  202 at Tue Sep 17 13:12:12 2024, MaxMem=   268435456 cpu:         0.1
 (Enter /g100_work/pMI24_ChiCa/g09d1/g09d01/d01/build-node-6-2-59348/src/main/l301.exe)
 Standard basis: 6-31+G(d,p) (6D, 7F)
 Ernie: Thresh=  0.10000D-02 Tol=  0.10000D-05 Strict=F.
 There are    65 symmetry adapted cartesian basis functions of A'  symmetry.
 There are    26 symmetry adapted cartesian basis functions of A"  symmetry.
 There are    65 symmetry adapted basis functions of A'  symmetry.
 There are    26 symmetry adapted basis functions of A"  symmetry.
    91 basis functions,   149 primitive gaussians,    91 cartesian basis functions
    16 alpha electrons       16 beta electrons
       nuclear repulsion energy       110.5496121988 Hartrees.
 IExCor=  402 DFT=T Ex+Corr=B3LYP ExCW=0 ScaHFX=  0.200000
 ScaDFX=  0.800000  0.720000  1.000000  0.810000 ScalE2=  1.000000  1.000000
 IRadAn=      0 IRanWt=     -1 IRanGd=            0 ICorTp=0 IEmpDi=  4
 NAtoms=    7 NActive=    7 NUniq=    6 SFac= 1.36D+00 NAtFMM=   60 NAOKFM=F Big=F
 Integral buffers will be    131072 words long.
 Raffenetti 2 integral format.
 Two-electron integral symmetry is turned on.
 ------------------------------------------------------------------------------
 Polarizable Continuum Model (PCM)
 =================================
 Model                : PCM (using non-symmetric T matrix).
 Atomic radii         : SMD-Coulomb.
 Polarization charges : Total charges.
 Charge compensation  : None.
 Solution method      : On-the-fly selection.
 Cavity type          : VdW (van der Waals Surface) (Alpha=1.000).
 Cavity algorithm     : GePol (No added spheres)
                        Default sphere list used, NSphG=    7.
                        Lebedev-Laikov grids with approx.  5.0 points / Ang**2.
                        Smoothing algorithm: Karplus/York (Gamma=1.0000).
                        Polarization charges: spherical gaussians, with
                                              point-specific exponents (IZeta= 3).
                        Self-potential: point-specific (ISelfS= 7).
                        Self-field    : sphere-specific E.n sum rule (ISelfD= 2).
 1st derivatives      : Analytical E(r).r(x)/FMM algorithm (CHGder, D1EAlg=3).
                        Cavity 1st derivative terms included.
 Solvent              : Water, Eps=  78.355300 Eps(inf)=   1.777849
 ------------------------------------------------------------------------------
 Spheres list:
 ISph  on   Nord     Re0    Alpha      Xe            Ye            Ze
    1   C      1    1.8500  1.000      0.000000      0.137932     -0.000000
    2   O      2    1.5200  1.000      1.363881      0.453889     -0.000000
    3   O      3    1.5200  1.000     -0.832709      1.029558     -0.000000
    4   C      4    1.8500  1.000     -0.437479     -1.296854      0.000000
    5   H      5    1.2000  1.000      0.423446     -1.932235      0.000000
    6   H      6    1.2000  1.000     -1.023975     -1.490904      0.873651
    7   H      7    1.2000  1.000     -1.023975     -1.490904     -0.873651
 ------------------------------------------------------------------------------
 GePol: Number of generator spheres                  =       7
 GePol: Total number of spheres                      =       7
 GePol: Number of exposed spheres                    =       7 (100.00%)
 GePol: Number of points                             =     625
 GePol: Average weight of points                     =       0.13
 GePol: Minimum weight of points                     =   0.41D-09
 GePol: Maximum weight of points                     =    0.21991
 GePol: Number of points with low weight             =      34
 GePol: Fraction of low-weight points (<1% of avg)   =       5.44%
 GePol: Cavity surface area                          =     81.051 Ang**2
 GePol: Cavity volume                                =     57.203 Ang**3
 ------------------------------------------------------------------------------
 Atomic radii for non-electrostatic terms: SMD-CDS.
 ------------------------------------------------------------------------------
 PCM non-electrostatic energy =         0.0048592751 Hartrees.
 Nuclear repulsion after PCM non-electrostatic terms =      110.5544714740 Hartrees.
 Leave Link  301 at Tue Sep 17 13:12:12 2024, MaxMem=   268435456 cpu:         0.1
 (Enter /g100_work/pMI24_ChiCa/g09d1/g09d01/d01/build-node-6-2-59348/src/main/l302.exe)
 NPDir=0 NMtPBC=     1 NCelOv=     1 NCel=       1 NClECP=     1 NCelD=      1
         NCelK=      1 NCelE2=     1 NClLst=     1 CellRange=     0.0.
 One-electron integrals computed using PRISM.
 One-electron integral symmetry used in STVInt
 NBasis=    91 RedAO= T EigKep=  3.31D-04  NBF=    65    26
 NBsUse=    91 1.00D-06 EigRej= -1.00D+00 NBFU=    65    26
 Precomputing XC quadrature grid using
 IXCGrd= 4 IRadAn=           0 IRanWt=          -1 IRanGd=           0 AccXCQ= 0.00D+00.
 Generated NRdTot=       0 NPtTot=           0 NUsed=           0 NTot=          32
 NSgBfM=    91    91    91    91    91 MxSgAt=     7 MxSgA2=     7.
 Leave Link  302 at Tue Sep 17 13:12:12 2024, MaxMem=   268435456 cpu:         1.3
 (Enter /g100_work/pMI24_ChiCa/g09d1/g09d01/d01/build-node-6-2-59348/src/main/l303.exe)
 DipDrv:  MaxL=1.
 Leave Link  303 at Tue Sep 17 13:12:12 2024, MaxMem=   268435456 cpu:         0.2
 (Enter /g100_work/pMI24_ChiCa/g09d1/g09d01/d01/build-node-6-2-59348/src/main/l401.exe)
 ExpMin= 4.38D-02 ExpMax= 5.48D+03 ExpMxC= 8.25D+02 IAcc=2 IRadAn=         4 AccDes= 0.00D+00
 Harris functional with IExCor=  402 and IRadAn=       4 diagonalized for initial guess.
 HarFok:  IExCor=  402 AccDes= 0.00D+00 IRadAn=         4 IDoV= 1 UseB2=F ITyADJ=14
 ICtDFT=  3500011 ScaDFX=  1.000000  1.000000  1.000000  1.000000
 FoFCou: FMM=F IPFlag=           0 FMFlag=      100000 FMFlg1=           0
         NFxFlg=           0 DoJE=T BraDBF=F KetDBF=T FulRan=T
         wScrn=  0.000000 ICntrl=     500 IOpCl=  0 I1Cent=   200000004 NGrid=           0
         NMat0=    1 NMatS0=      1 NMatT0=    0 NMatD0=    1 NMtDS0=    0 NMtDT0=    0
 Petite list used in FoFCou.
 Harris En= -228.737730321163    
 JPrj=0 DoOrth=F DoCkMO=F.
 Initial guess orbital symmetries:
       Occupied  (A') (A') (A') (A') (A') (A') (A') (A') (A') (A")
                 (A') (A') (A") (A') (A") (A')
       Virtual   (A") (A') (A') (A') (A") (A') (A') (A") (A') (A")
                 (A') (A') (A') (A") (A') (A') (A') (A') (A") (A')
                 (A') (A') (A') (A') (A") (A') (A") (A') (A') (A")
                 (A') (A') (A') (A') (A") (A") (A') (A') (A') (A")
                 (A') (A") (A') (A') (A") (A') (A') (A') (A") (A')
                 (A") (A') (A") (A') (A") (A') (A") (A') (A') (A")
                 (A') (A") (A') (A') (A") (A') (A') (A') (A') (A")
                 (A') (A') (A') (A') (A')
 The electronic state of the initial guess is 1-A'.
 Leave Link  401 at Tue Sep 17 13:12:12 2024, MaxMem=   268435456 cpu:         1.5
 (Enter /g100_work/pMI24_ChiCa/g09d1/g09d01/d01/build-node-6-2-59348/src/main/l502.exe)
 Closed shell SCF:
 Using DIIS extrapolation, IDIIS=  1040.
 Integral symmetry usage will be decided dynamically.
 Keep R1 ints in memory in symmetry-blocked form, NReq=13364509.
 IVT=       46381 IEndB=       46381 NGot=   268435456 MDV=   263834430
 LenX=   263834430 LenY=   263825708
 Requested convergence on RMS density matrix=1.00D-08 within 128 cycles.
 Requested convergence on MAX density matrix=1.00D-06.
 Requested convergence on             energy=1.00D-06.
 No special actions if energy rises.
 FoFCou: FMM=F IPFlag=           0 FMFlag=           0 FMFlg1=           0
         NFxFlg=           0 DoJE=F BraDBF=F KetDBF=F FulRan=T
         wScrn=  0.000000 ICntrl=     600 IOpCl=  0 I1Cent=           0 NGrid=           0
         NMat0=    1 NMatS0=   4186 NMatT0=    0 NMatD0=    1 NMtDS0=    0 NMtDT0=    0
 Petite list used in FoFCou.

 Cycle   1  Pass 1  IDiag  1:
 Inv3:  Mode=1 IEnd=     1171875.
 Iteration    1 A*A^-1 deviation from unit magnitude is 4.00D-15 for    327.
 Iteration    1 A*A^-1 deviation from orthogonality  is 4.03D-15 for    328     92.
 Iteration    1 A^-1*A deviation from unit magnitude is 3.33D-15 for    365.
 Iteration    1 A^-1*A deviation from orthogonality  is 2.11D-14 for    607    567.
 E= -228.439423805064    
 DIIS: error= 5.04D-02 at cycle   1 NSaved=   1.
 NSaved= 1 IEnMin= 1 EnMin= -228.439423805064     IErMin= 1 ErrMin= 5.04D-02
 ErrMax= 5.04D-02  0.00D+00 EMaxC= 1.00D-01 BMatC= 2.43D-01 BMatP= 2.43D-01
 IDIUse=3 WtCom= 4.96D-01 WtEn= 5.04D-01
 Coeff-Com:  0.100D+01
 Coeff-En:   0.100D+01
 Coeff:      0.100D+01
 Gap=     0.101 Goal=   None    Shift=    0.000
 GapD=    0.101 DampG=1.000 DampE=0.500 DampFc=0.5000 IDamp=-1.
 Damping current iteration by 5.00D-01
 RMSDP=1.44D-02 MaxDP=2.56D-01              OVMax= 2.58D-01

 Cycle   2  Pass 1  IDiag  1:
 E= -228.487577155396     Delta-E=       -0.048153350333 Rises=F Damp=T
 DIIS: error= 1.77D-02 at cycle   2 NSaved=   2.
 NSaved= 2 IEnMin= 2 EnMin= -228.487577155396     IErMin= 2 ErrMin= 1.77D-02
 ErrMax= 1.77D-02  0.00D+00 EMaxC= 1.00D-01 BMatC= 3.34D-02 BMatP= 2.43D-01
 IDIUse=3 WtCom= 8.23D-01 WtEn= 1.77D-01
 Coeff-Com:  0.239D+00 0.761D+00
 Coeff-En:   0.379D+00 0.621D+00
 Coeff:      0.264D+00 0.736D+00
 Gap=     0.252 Goal=   None    Shift=    0.000
 RMSDP=5.60D-03 MaxDP=1.35D-01 DE=-4.82D-02 OVMax= 1.89D-01

 Cycle   3  Pass 1  IDiag  1:
 E= -228.630695479803     Delta-E=       -0.143118324406 Rises=F Damp=F
 DIIS: error= 9.27D-03 at cycle   3 NSaved=   3.
 NSaved= 3 IEnMin= 3 EnMin= -228.630695479803     IErMin= 3 ErrMin= 9.27D-03
 ErrMax= 9.27D-03  0.00D+00 EMaxC= 1.00D-01 BMatC= 1.49D-02 BMatP= 3.34D-02
 IDIUse=3 WtCom= 9.07D-01 WtEn= 9.27D-02
 Coeff-Com:  0.113D+00 0.433D+00 0.453D+00
 Coeff-En:   0.000D+00 0.000D+00 0.100D+01
 Coeff:      0.103D+00 0.393D+00 0.504D+00
 Gap=     0.267 Goal=   None    Shift=    0.000
 RMSDP=1.34D-03 MaxDP=2.80D-02 DE=-1.43D-01 OVMax= 4.69D-02

 Cycle   4  Pass 1  IDiag  1:
 E= -228.642118165449     Delta-E=       -0.011422685646 Rises=F Damp=F
 DIIS: error= 5.21D-03 at cycle   4 NSaved=   4.
 NSaved= 4 IEnMin= 4 EnMin= -228.642118165449     IErMin= 4 ErrMin= 5.21D-03
 ErrMax= 5.21D-03  0.00D+00 EMaxC= 1.00D-01 BMatC= 2.24D-03 BMatP= 1.49D-02
 IDIUse=3 WtCom= 9.48D-01 WtEn= 5.21D-02
 Coeff-Com:  0.220D-01 0.108D+00 0.287D+00 0.583D+00
 Coeff-En:   0.000D+00 0.000D+00 0.101D+00 0.899D+00
 Coeff:      0.208D-01 0.102D+00 0.278D+00 0.600D+00
 Gap=     0.258 Goal=   None    Shift=    0.000
 RMSDP=5.96D-04 MaxDP=1.30D-02 DE=-1.14D-02 OVMax= 2.33D-02

 Cycle   5  Pass 1  IDiag  1:
 E= -228.643331918005     Delta-E=       -0.001213752556 Rises=F Damp=F
 DIIS: error= 2.73D-03 at cycle   5 NSaved=   5.
 NSaved= 5 IEnMin= 5 EnMin= -228.643331918005     IErMin= 5 ErrMin= 2.73D-03
 ErrMax= 2.73D-03  0.00D+00 EMaxC= 1.00D-01 BMatC= 6.62D-04 BMatP= 2.24D-03
 IDIUse=3 WtCom= 9.73D-01 WtEn= 2.73D-02
 Coeff-Com: -0.304D-02 0.432D-02 0.119D+00 0.428D+00 0.451D+00
 Coeff-En:   0.000D+00 0.000D+00 0.000D+00 0.247D+00 0.753D+00
 Coeff:     -0.296D-02 0.420D-02 0.116D+00 0.423D+00 0.459D+00
 Gap=     0.256 Goal=   None    Shift=    0.000
 RMSDP=2.13D-04 MaxDP=5.10D-03 DE=-1.21D-03 OVMax= 7.71D-03

 Cycle   6  Pass 1  IDiag  1:
 E= -228.643842613223     Delta-E=       -0.000510695218 Rises=F Damp=F
 DIIS: error= 1.23D-04 at cycle   6 NSaved=   6.
 NSaved= 6 IEnMin= 6 EnMin= -228.643842613223     IErMin= 6 ErrMin= 1.23D-04
 ErrMax= 1.23D-04  0.00D+00 EMaxC= 1.00D-01 BMatC= 1.33D-06 BMatP= 6.62D-04
 IDIUse=3 WtCom= 9.99D-01 WtEn= 1.23D-03
 Coeff-Com: -0.328D-03-0.144D-02 0.143D-01 0.546D-01 0.881D-01 0.845D+00
 Coeff-En:   0.000D+00 0.000D+00 0.000D+00 0.000D+00 0.000D+00 0.100D+01
 Coeff:     -0.327D-03-0.144D-02 0.143D-01 0.545D-01 0.880D-01 0.845D+00
 Gap=     0.256 Goal=   None    Shift=    0.000
 RMSDP=2.07D-05 MaxDP=5.17D-04 DE=-5.11D-04 OVMax= 3.44D-04

 Cycle   7  Pass 1  IDiag  1:
 E= -228.643843682947     Delta-E=       -0.000001069724 Rises=F Damp=F
 DIIS: error= 1.75D-05 at cycle   7 NSaved=   7.
 NSaved= 7 IEnMin= 7 EnMin= -228.643843682947     IErMin= 7 ErrMin= 1.75D-05
 ErrMax= 1.75D-05  0.00D+00 EMaxC= 1.00D-01 BMatC= 3.78D-08 BMatP= 1.33D-06
 IDIUse=1 WtCom= 1.00D+00 WtEn= 0.00D+00
 Coeff-Com:  0.599D-04-0.607D-03 0.225D-02 0.804D-02 0.160D-01 0.212D+00
 Coeff-Com:  0.762D+00
 Coeff:      0.599D-04-0.607D-03 0.225D-02 0.804D-02 0.160D-01 0.212D+00
 Coeff:      0.762D+00
 Gap=     0.256 Goal=   None    Shift=    0.000
 RMSDP=4.00D-06 MaxDP=8.66D-05 DE=-1.07D-06 OVMax= 7.14D-05

 Cycle   8  Pass 1  IDiag  1:
 E= -228.643843711568     Delta-E=       -0.000000028621 Rises=F Damp=F
 DIIS: error= 6.75D-06 at cycle   8 NSaved=   8.
 NSaved= 8 IEnMin= 8 EnMin= -228.643843711568     IErMin= 8 ErrMin= 6.75D-06
 ErrMax= 6.75D-06  0.00D+00 EMaxC= 1.00D-01 BMatC= 7.15D-09 BMatP= 3.78D-08
 IDIUse=1 WtCom= 1.00D+00 WtEn= 0.00D+00
 Coeff-Com:  0.852D-04-0.127D-03-0.397D-03-0.190D-02-0.136D-02 0.233D-01
 Coeff-Com:  0.365D+00 0.616D+00
 Coeff:      0.852D-04-0.127D-03-0.397D-03-0.190D-02-0.136D-02 0.233D-01
 Coeff:      0.365D+00 0.616D+00
 Gap=     0.256 Goal=   None    Shift=    0.000
 RMSDP=1.41D-06 MaxDP=2.66D-05 DE=-2.86D-08 OVMax= 2.32D-05

 Cycle   9  Pass 1  IDiag  1:
 E= -228.643843718655     Delta-E=       -0.000000007088 Rises=F Damp=F
 DIIS: error= 7.91D-07 at cycle   9 NSaved=   9.
 NSaved= 9 IEnMin= 9 EnMin= -228.643843718655     IErMin= 9 ErrMin= 7.91D-07
 ErrMax= 7.91D-07  0.00D+00 EMaxC= 1.00D-01 BMatC= 8.54D-11 BMatP= 7.15D-09
 IDIUse=1 WtCom= 1.00D+00 WtEn= 0.00D+00
 Coeff-Com:  0.202D-05 0.782D-05-0.136D-03-0.409D-03-0.741D-03-0.476D-02
 Coeff-Com:  0.168D-01 0.782D-01 0.911D+00
 Coeff:      0.202D-05 0.782D-05-0.136D-03-0.409D-03-0.741D-03-0.476D-02
 Coeff:      0.168D-01 0.782D-01 0.911D+00
 Gap=     0.256 Goal=   None    Shift=    0.000
 RMSDP=2.41D-07 MaxDP=6.34D-06 DE=-7.09D-09 OVMax= 3.76D-06

 Cycle  10  Pass 1  IDiag  1:
 E= -228.643843718730     Delta-E=       -0.000000000075 Rises=F Damp=F
 DIIS: error= 1.73D-07 at cycle  10 NSaved=  10.
 NSaved=10 IEnMin=10 EnMin= -228.643843718730     IErMin=10 ErrMin= 1.73D-07
 ErrMax= 1.73D-07  0.00D+00 EMaxC= 1.00D-01 BMatC= 4.18D-12 BMatP= 8.54D-11
 IDIUse=1 WtCom= 1.00D+00 WtEn= 0.00D+00
 Coeff-Com: -0.348D-05 0.591D-05-0.141D-04-0.112D-04-0.104D-03-0.129D-02
 Coeff-Com: -0.760D-02-0.326D-02 0.974D-01 0.915D+00
 Coeff:     -0.348D-05 0.591D-05-0.141D-04-0.112D-04-0.104D-03-0.129D-02
 Coeff:     -0.760D-02-0.326D-02 0.974D-01 0.915D+00
 Gap=     0.256 Goal=   None    Shift=    0.000
 RMSDP=2.57D-08 MaxDP=4.68D-07 DE=-7.50D-11 OVMax= 7.92D-07

 Cycle  11  Pass 1  IDiag  1:
 E= -228.643843718737     Delta-E=       -0.000000000007 Rises=F Damp=F
 DIIS: error= 2.08D-08 at cycle  11 NSaved=  11.
 NSaved=11 IEnMin=11 EnMin= -228.643843718737     IErMin=11 ErrMin= 2.08D-08
 ErrMax= 2.08D-08  0.00D+00 EMaxC= 1.00D-01 BMatC= 7.36D-14 BMatP= 4.18D-12
 IDIUse=1 WtCom= 1.00D+00 WtEn= 0.00D+00
 Coeff-Com: -0.371D-06 0.368D-06 0.979D-06 0.549D-05 0.125D-05 0.335D-04
 Coeff-Com: -0.629D-03-0.120D-02-0.170D-01 0.622D-01 0.957D+00
 Coeff:     -0.371D-06 0.368D-06 0.979D-06 0.549D-05 0.125D-05 0.335D-04
 Coeff:     -0.629D-03-0.120D-02-0.170D-01 0.622D-01 0.957D+00
 Gap=     0.256 Goal=   None    Shift=    0.000
 RMSDP=3.66D-09 MaxDP=6.49D-08 DE=-6.99D-12 OVMax= 1.25D-07

 Error on total polarization charges =  0.06406
 SCF Done:  E(RB3LYP) =  -228.643843719     A.U. after   11 cycles
            NFock= 11  Conv=0.37D-08     -V/T= 2.0094
 KE= 2.265075186507D+02 PE=-7.651269773335D+02 EE= 1.994211434901D+02
 SMD-CDS (non-electrostatic) energy       (kcal/mol) =       3.05
 (included in total energy above)
 Leave Link  502 at Tue Sep 17 13:12:13 2024, MaxMem=   268435456 cpu:        20.4
 (Enter /g100_work/pMI24_ChiCa/g09d1/g09d01/d01/build-node-6-2-59348/src/main/l601.exe)
 Copying SCF densities to generalized density rwf, IOpCl= 0 IROHF=0.

 **********************************************************************

            Population analysis using the SCF density.

 **********************************************************************

 Orbital symmetries:
       Occupied  (A') (A') (A') (A') (A') (A') (A') (A') (A") (A')
                 (A') (A') (A") (A') (A") (A')
       Virtual   (A') (A") (A') (A') (A") (A') (A') (A") (A') (A')
                 (A") (A') (A') (A") (A') (A') (A") (A') (A') (A')
                 (A') (A') (A') (A") (A') (A') (A") (A') (A') (A")
                 (A') (A') (A') (A') (A") (A") (A') (A') (A') (A')
                 (A") (A") (A') (A') (A") (A') (A') (A') (A") (A')
                 (A") (A') (A") (A') (A") (A') (A") (A') (A') (A")
                 (A') (A") (A') (A') (A") (A') (A') (A') (A') (A")
                 (A') (A') (A') (A') (A')
 The electronic state is 1-A'.
 Alpha  occ. eigenvalues --  -19.12178 -19.09816 -10.29089 -10.16884  -1.04063
 Alpha  occ. eigenvalues --   -0.90596  -0.72819  -0.51133  -0.43915  -0.43577
 Alpha  occ. eigenvalues --   -0.43384  -0.37733  -0.36040  -0.26281  -0.25894
 Alpha  occ. eigenvalues --   -0.23798
 Alpha virt. eigenvalues --    0.01783   0.02624   0.04897   0.05866   0.06731
 Alpha virt. eigenvalues --    0.08647   0.08835   0.09829   0.13989   0.16840
 Alpha virt. eigenvalues --    0.18575   0.20615   0.22272   0.25140   0.25333
 Alpha virt. eigenvalues --    0.26710   0.28521   0.28770   0.30319   0.32426
 Alpha virt. eigenvalues --    0.35069   0.40875   0.47764   0.65783   0.66137
 Alpha virt. eigenvalues --    0.69239   0.72460   0.80570   0.81270   0.93778
 Alpha virt. eigenvalues --    0.98580   1.06662   1.11490   1.15168   1.17837
 Alpha virt. eigenvalues --    1.25576   1.27663   1.32242   1.32408   1.33516
 Alpha virt. eigenvalues --    1.35274   1.47402   1.52239   1.58683   1.71331
 Alpha virt. eigenvalues --    1.78533   1.80036   1.82751   1.84989   1.90172
 Alpha virt. eigenvalues --    1.90688   2.00714   2.05251   2.10054   2.13539
 Alpha virt. eigenvalues --    2.18681   2.26932   2.32363   2.36672   2.51750
 Alpha virt. eigenvalues --    2.67040   2.67526   2.71010   2.84688   2.92491
 Alpha virt. eigenvalues --    2.97127   3.06263   3.17793   3.34344   3.47831
 Alpha virt. eigenvalues --    3.50617   4.11214   4.29331   4.33970   4.62529
          Condensed to atoms (all electrons):
               1          2          3          4          5          6
     1  C    4.675264   0.335339   0.379120   0.208773  -0.047208  -0.024655
     2  O    0.335339   8.886638  -0.171269  -0.142734  -0.002105   0.002156
     3  O    0.379120  -0.171269   8.616064  -0.164377   0.007021  -0.004802
     4  C    0.208773  -0.142734  -0.164377   5.394910   0.402458   0.390201
     5  H   -0.047208  -0.002105   0.007021   0.402458   0.521973  -0.026437
     6  H   -0.024655   0.002156  -0.004802   0.390201  -0.026437   0.496593
     7  H   -0.024655   0.002156  -0.004802   0.390201  -0.026437  -0.021963
               7
     1  C   -0.024655
     2  O    0.002156
     3  O   -0.004802
     4  C    0.390201
     5  H   -0.026437
     6  H   -0.021963
     7  H    0.496593
 Mulliken charges:
               1
     1  C    0.498023
     2  O   -0.910183
     3  O   -0.656956
     4  C   -0.479432
     5  H    0.170735
     6  H    0.188907
     7  H    0.188907
 Sum of Mulliken charges =  -1.00000
 Mulliken charges with hydrogens summed into heavy atoms:
               1
     1  C    0.498023
     2  O   -0.910183
     3  O   -0.656956
     4  C    0.069116
 Electronic spatial extent (au):  <R**2>=            261.5229
 Charge=             -1.0000 electrons
 Dipole moment (field-independent basis, Debye):
    X=             -3.6329    Y=             -5.9184    Z=              0.0000  Tot=              6.9444
 Quadrupole moment (field-independent basis, Debye-Ang):
   XX=            -37.3258   YY=            -30.4655   ZZ=            -25.1110
   XY=              0.6846   XZ=             -0.0000   YZ=             -0.0000
 Traceless Quadrupole moment (field-independent basis, Debye-Ang):
   XX=             -6.3584   YY=              0.5019   ZZ=              5.8565
   XY=              0.6846   XZ=             -0.0000   YZ=             -0.0000
 Octapole moment (field-independent basis, Debye-Ang**2):
  XXX=            -13.2359  YYY=             -7.7590  ZZZ=              0.0000  XYY=              0.0852
  XXY=             -7.6896  XXZ=              0.0000  XZZ=             -2.5650  YZZ=             -1.0935
  YYZ=              0.0000  XYZ=              0.0000
 Hexadecapole moment (field-independent basis, Debye-Ang**3):
 XXXX=           -174.7223 YYYY=           -178.8462 ZZZZ=            -32.9650 XXXY=            -12.0139
 XXXZ=             -0.0000 YYYX=            -10.1398 YYYZ=             -0.0000 ZZZX=             -0.0000
 ZZZY=             -0.0000 XXYY=            -57.9454 XXZZ=            -31.2385 YYZZ=            -33.4332
 XXYZ=             -0.0000 YYXZ=             -0.0000 ZZXY=             -2.1895
 N-N= 1.105544714740D+02 E-N=-7.651269754223D+02  KE= 2.265075186507D+02
 Symmetry A'   KE= 2.166698360670D+02
 Symmetry A"   KE= 9.837682583706D+00
 No NMR shielding tensors so no spin-rotation constants.
 Leave Link  601 at Tue Sep 17 13:12:14 2024, MaxMem=   268435456 cpu:         1.5
 (Enter /g100_work/pMI24_ChiCa/g09d1/g09d01/d01/build-node-6-2-59348/src/main/l701.exe)
 Compute integral first derivatives.
 ... and contract with generalized density number  0.
 D1PCM: PCM CHGder 1st derivatives, ID1Alg=3 FixD1E=F DoIter=F DoCFld=F I1PDM=0.
 GePol: Maximum number of non-zero 1st derivatives   =     259
 Leave Link  701 at Tue Sep 17 13:12:14 2024, MaxMem=   268435456 cpu:         4.1
 (Enter /g100_work/pMI24_ChiCa/g09d1/g09d01/d01/build-node-6-2-59348/src/main/l702.exe)
 L702 exits ... SP integral derivatives will be done elsewhere.
 Leave Link  702 at Tue Sep 17 13:12:14 2024, MaxMem=   268435456 cpu:         0.1
 (Enter /g100_work/pMI24_ChiCa/g09d1/g09d01/d01/build-node-6-2-59348/src/main/l703.exe)
 Compute integral first derivatives, UseDBF=F ICtDFT=           0.
 Integral derivatives from FoFJK, PRISM(SPDF).
 Calling FoFJK, ICntrl=      2127 FMM=F ISym2X=1 I1Cent= 0 IOpClX= 0 NMat=1 NMatS=1 NMatT=0.
 FoFJK:  IHMeth= 1 ICntrl=    2127 DoSepK=F KAlg= 0 I1Cent=   0 FoldK=F
 IRaf=         0 NMat=   1 IRICut=       1 DoRegI=T DoRafI=F ISym2E= 1.
 FoFCou: FMM=F IPFlag=           0 FMFlag=      100000 FMFlg1=         800
         NFxFlg=           0 DoJE=F BraDBF=F KetDBF=F FulRan=T
         wScrn=  0.000000 ICntrl=    2127 IOpCl=  0 I1Cent=           0 NGrid=           0
         NMat0=    1 NMatS0=      1 NMatT0=    0 NMatD0=    1 NMtDS0=    0 NMtDT0=    0
 Petite list used in FoFCou.
 Leave Link  703 at Tue Sep 17 13:12:14 2024, MaxMem=   268435456 cpu:         3.5
 (Enter /g100_work/pMI24_ChiCa/g09d1/g09d01/d01/build-node-6-2-59348/src/main/l716.exe)
 Dipole        =-1.42927429D+00-2.32846695D+00 2.22044605D-16
 ***** Axes restored to original set *****
 -------------------------------------------------------------------
 Center     Atomic                   Forces (Hartrees/Bohr)
 Number     Number              X              Y              Z
 -------------------------------------------------------------------
      1        6          -0.012746316   -0.000000000    0.093548339
      2        8          -0.011305482    0.000000000   -0.069277036
      3        8           0.036842553   -0.000000000   -0.027952968
      4        6           0.002971757   -0.000000000    0.019284104
      5        1          -0.014639059   -0.000000000    0.006892579
      6        1          -0.000561726    0.012863938   -0.011247509
      7        1          -0.000561726   -0.012863938   -0.011247509
 -------------------------------------------------------------------
 Cartesian Forces:  Max     0.093548339 RMS     0.028624621
 Leave Link  716 at Tue Sep 17 13:12:14 2024, MaxMem=   268435456 cpu:         0.1
 (Enter /g100_work/pMI24_ChiCa/g09d1/g09d01/d01/build-node-6-2-59348/src/main/l103.exe)

 GradGradGradGradGradGradGradGradGradGradGradGradGradGradGradGradGradGrad
 Berny optimization.
 FormGI is forming the generalized inverse of G from B-inverse, IUseBI=4.
 Internal  Forces:  Max     0.069251599 RMS     0.019917847
 Search for a local minimum.
 Step number   1 out of a maximum of   31
 All quantities printed in internal units (Hartrees-Bohrs-Radians)
 RMS Force = .19918D-01 SwitMx=.10000D-02 MixMth= 1
 Mixed Optimization -- RFO/linear search
 Second derivative matrix not updated -- first step.
 ITU=  0
     Eigenvalues ---    0.00766   0.00766   0.07537   0.07537   0.16000
     Eigenvalues ---    0.16000   0.16000   0.25000   0.25000   0.32377
     Eigenvalues ---    0.37230   0.37230   0.37230   0.45621   0.95383
 RFO step:  Lambda=-1.68726833D-02 EMin= 7.65947438D-03
 Linear search not attempted -- first point.
 Iteration  1 RMS(Cart)=  0.04214946 RMS(Int)=  0.00100560
 Iteration  2 RMS(Cart)=  0.00118741 RMS(Int)=  0.00010102
 Iteration  3 RMS(Cart)=  0.00000165 RMS(Int)=  0.00010101
 Iteration  4 RMS(Cart)=  0.00000000 RMS(Int)=  0.00010101
 ITry= 1 IFail=0 DXMaxC= 1.18D-01 DCOld= 1.00D+10 DXMaxT= 3.00D-01 DXLimC= 3.00D+00 Rises=F
 ClnCor:  largest displacement from symmetrization is 2.63D-11 for atom     5.
 Variable       Old X    -DE/DX   Delta X   Delta X   Delta X     New X
                                 (Linear)    (Quad)   (Total)
    R1        2.64562  -0.06925   0.00000  -0.14639  -0.14639   2.49923
    R2        2.30547   0.04586   0.00000   0.04724   0.04724   2.35271
    R3        2.83459   0.00923   0.00000   0.02710   0.02710   2.86169
    R4        2.02201   0.01558   0.00000   0.04004   0.04004   2.06205
    R5        2.02201   0.01701   0.00000   0.04371   0.04371   2.06572
    R6        2.02201   0.01701   0.00000   0.04371   0.04371   2.06572
    A1        2.09440   0.01443   0.00000   0.05406   0.05406   2.14846
    A2        2.09440  -0.01565   0.00000  -0.05864  -0.05864   2.03576
    A3        2.09440   0.00122   0.00000   0.00457   0.00457   2.09897
    A4        1.91063   0.00702   0.00000   0.04529   0.04512   1.95575
    A5        1.91063  -0.00087   0.00000  -0.00774  -0.00794   1.90269
    A6        1.91063  -0.00087   0.00000  -0.00774  -0.00794   1.90269
    A7        1.91063  -0.00172   0.00000  -0.00408  -0.00425   1.90638
    A8        1.91063  -0.00172   0.00000  -0.00408  -0.00425   1.90638
    A9        1.91063  -0.00184   0.00000  -0.02163  -0.02185   1.88878
    D1        0.00000  -0.00000   0.00000  -0.00000   0.00000   0.00000
    D2        2.09440   0.00166   0.00000   0.01799   0.01796   2.11236
    D3       -2.09440  -0.00166   0.00000  -0.01799  -0.01796  -2.11236
    D4        3.14159   0.00000   0.00000   0.00000   0.00000   3.14159
    D5       -1.04720   0.00166   0.00000   0.01799   0.01796  -1.02924
    D6        1.04720  -0.00166   0.00000  -0.01799  -0.01796   1.02924
         Item               Value     Threshold  Converged?
 Maximum Force            0.069252     0.000450     NO 
 RMS     Force            0.019918     0.000300     NO 
 Maximum Displacement     0.117711     0.001800     NO 
 RMS     Displacement     0.041903     0.001200     NO 
 Predicted change in Energy=-8.774932D-03
 Lowest energy point so far.  Saving SCF results.
 GradGradGradGradGradGradGradGradGradGradGradGradGradGradGradGradGradGrad

 Leave Link  103 at Tue Sep 17 13:12:14 2024, MaxMem=   268435456 cpu:         1.5
 (Enter /g100_work/pMI24_ChiCa/g09d1/g09d01/d01/build-node-6-2-59348/src/main/l202.exe)
                          Input orientation:                          
 ---------------------------------------------------------------------
 Center     Atomic      Atomic             Coordinates (Angstroms)
 Number     Number       Type             X           Y           Z
 ---------------------------------------------------------------------
      1          6           0        0.023098   -0.000000    0.016484
      2          8           0       -0.035758   -0.000000    1.337710
      3          8           0        1.095308   -0.000000   -0.616280
      4          6           0       -1.298922    0.000000   -0.722095
      5          1           0       -2.149889    0.000000   -0.039051
      6          1           0       -1.350044    0.885589   -1.360884
      7          1           0       -1.350044   -0.885589   -1.360884
 ---------------------------------------------------------------------
                    Distance matrix (angstroms):
                    1          2          3          4          5
     1  C    0.000000
     2  O    1.322536   0.000000
     3  O    1.245000   2.257739   0.000000
     4  C    1.514343   2.416274   2.396567   0.000000
     5  H    2.173696   2.522899   3.296133   1.091189   0.000000
     6  H    2.137038   3.129541   2.705263   1.093130   1.780804
     7  H    2.137038   3.129541   2.705263   1.093130   1.780804
                    6          7
     6  H    0.000000
     7  H    1.771178   0.000000
 Stoichiometry    C2H3O2(1-)
 Framework group  CS[SG(C2HO2),X(H2)]
 Deg. of freedom    10
 Full point group                 CS      NOp   2
 RotChk:  IX=0 Diff= 1.73D-01
 Largest Abelian subgroup         CS      NOp   2
 Largest concise Abelian subgroup CS      NOp   2
                         Standard orientation:                         
 ---------------------------------------------------------------------
 Center     Atomic      Atomic             Coordinates (Angstroms)
 Number     Number       Type             X           Y           Z
 ---------------------------------------------------------------------
      1          6           0        0.000000    0.162952    0.000000
      2          8           0        1.261146    0.561213    0.000000
      3          8           0       -0.962375    0.952799    0.000000
      4          6           0       -0.239886   -1.332270    0.000000
      5          1           0        0.693767   -1.897059    0.000000
      6          1           0       -0.822311   -1.599565    0.885589
      7          1           0       -0.822311   -1.599565   -0.885589
 ---------------------------------------------------------------------
 Rotational constants (GHZ):     11.5018493      9.8077332      5.4750431
 Leave Link  202 at Tue Sep 17 13:12:14 2024, MaxMem=   268435456 cpu:         0.1
 (Enter /g100_work/pMI24_ChiCa/g09d1/g09d01/d01/build-node-6-2-59348/src/main/l301.exe)
 Standard basis: 6-31+G(d,p) (6D, 7F)
 Ernie: Thresh=  0.10000D-02 Tol=  0.10000D-05 Strict=F.
 There are    65 symmetry adapted cartesian basis functions of A'  symmetry.
 There are    26 symmetry adapted cartesian basis functions of A"  symmetry.
 There are    65 symmetry adapted basis functions of A'  symmetry.
 There are    26 symmetry adapted basis functions of A"  symmetry.
    91 basis functions,   149 primitive gaussians,    91 cartesian basis functions
    16 alpha electrons       16 beta electrons
       nuclear repulsion energy       111.1410556538 Hartrees.
 IExCor=  402 DFT=T Ex+Corr=B3LYP ExCW=0 ScaHFX=  0.200000
 ScaDFX=  0.800000  0.720000  1.000000  0.810000 ScalE2=  1.000000  1.000000
 IRadAn=      0 IRanWt=     -1 IRanGd=            0 ICorTp=0 IEmpDi=  4
 NAtoms=    7 NActive=    7 NUniq=    6 SFac= 1.36D+00 NAtFMM=   60 NAOKFM=F Big=F
 Integral buffers will be    131072 words long.
 Raffenetti 2 integral format.
 Two-electron integral symmetry is turned on.
 ------------------------------------------------------------------------------
 Polarizable Continuum Model (PCM)
 =================================
 Model                : PCM (using non-symmetric T matrix).
 Atomic radii         : SMD-Coulomb.
 Polarization charges : Total charges.
 Charge compensation  : None.
 Solution method      : On-the-fly selection.
 Cavity type          : VdW (van der Waals Surface) (Alpha=1.000).
 Cavity algorithm     : GePol (No added spheres)
                        Default sphere list used, NSphG=    7.
                        Lebedev-Laikov grids with approx.  5.0 points / Ang**2.
                        Smoothing algorithm: Karplus/York (Gamma=1.0000).
                        Polarization charges: spherical gaussians, with
                                              point-specific exponents (IZeta= 3).
                        Self-potential: point-specific (ISelfS= 7).
                        Self-field    : sphere-specific E.n sum rule (ISelfD= 2).
 1st derivatives      : Analytical E(r).r(x)/FMM algorithm (CHGder, D1EAlg=3).
                        Cavity 1st derivative terms included.
 Solvent              : Water, Eps=  78.355300 Eps(inf)=   1.777849
 ------------------------------------------------------------------------------
 Spheres list:
 ISph  on   Nord     Re0    Alpha      Xe            Ye            Ze
    1   C      1    1.8500  1.000      0.000000      0.162952      0.000000
    2   O      2    1.5200  1.000      1.261146      0.561213      0.000000
    3   O      3    1.5200  1.000     -0.962375      0.952799      0.000000
    4   C      4    1.8500  1.000     -0.239886     -1.332270      0.000000
    5   H      5    1.2000  1.000      0.693767     -1.897059      0.000000
    6   H      6    1.2000  1.000     -0.822311     -1.599565      0.885589
    7   H      7    1.2000  1.000     -0.822311     -1.599565     -0.885589
 ------------------------------------------------------------------------------
 GePol: Number of generator spheres                  =       7
 GePol: Total number of spheres                      =       7
 GePol: Number of exposed spheres                    =       7 (100.00%)
 GePol: Number of points                             =     629
 GePol: Average weight of points                     =       0.13
 GePol: Minimum weight of points                     =   0.75D-06
 GePol: Maximum weight of points                     =    0.21991
 GePol: Number of points with low weight             =      27
 GePol: Fraction of low-weight points (<1% of avg)   =       4.29%
 GePol: Cavity surface area                          =     80.435 Ang**2
 GePol: Cavity volume                                =     56.985 Ang**3
 ------------------------------------------------------------------------------
 Atomic radii for non-electrostatic terms: SMD-CDS.
 ------------------------------------------------------------------------------
 PCM non-electrostatic energy =         0.0057668452 Hartrees.
 Nuclear repulsion after PCM non-electrostatic terms =      111.1468224990 Hartrees.
 Leave Link  301 at Tue Sep 17 13:12:14 2024, MaxMem=   268435456 cpu:         0.1
 (Enter /g100_work/pMI24_ChiCa/g09d1/g09d01/d01/build-node-6-2-59348/src/main/l302.exe)
 NPDir=0 NMtPBC=     1 NCelOv=     1 NCel=       1 NClECP=     1 NCelD=      1
         NCelK=      1 NCelE2=     1 NClLst=     1 CellRange=     0.0.
 One-electron integrals computed using PRISM.
 One-electron integral symmetry used in STVInt
 NBasis=    91 RedAO= T EigKep=  3.60D-04  NBF=    65    26
 NBsUse=    91 1.00D-06 EigRej= -1.00D+00 NBFU=    65    26
 Precomputing XC quadrature grid using
 IXCGrd= 4 IRadAn=           0 IRanWt=          -1 IRanGd=           0 AccXCQ= 0.00D+00.
 Generated NRdTot=       0 NPtTot=           0 NUsed=           0 NTot=          32
 NSgBfM=    91    91    91    91    91 MxSgAt=     7 MxSgA2=     7.
 Leave Link  302 at Tue Sep 17 13:12:15 2024, MaxMem=   268435456 cpu:         1.4
 (Enter /g100_work/pMI24_ChiCa/g09d1/g09d01/d01/build-node-6-2-59348/src/main/l303.exe)
 DipDrv:  MaxL=1.
 Leave Link  303 at Tue Sep 17 13:12:15 2024, MaxMem=   268435456 cpu:         0.2
 (Enter /g100_work/pMI24_ChiCa/g09d1/g09d01/d01/build-node-6-2-59348/src/main/l401.exe)
 Initial guess from the checkpoint file:  "/g100_scratch/userexternal/ecabiati/g16_14416499/Gau-53287.chk"
 B after Tr=    -0.000000   -0.000000    0.000000
         Rot=    0.998261    0.000000   -0.000000   -0.058943 Ang=  -6.76 deg.
 Guess basis will be translated and rotated to current coordinates.
 JPrj=2 DoOrth=T DoCkMO=T.
 Initial guess orbital symmetries:
       Occupied  (A') (A') (A') (A') (A') (A') (A') (A') (A") (A')
                 (A') (A') (A") (A') (A") (A')
       Virtual   (A') (A') (A') (A') (A') (A') (A') (A') (A') (A')
                 (A') (A') (A') (A') (A') (A') (A') (A') (A') (A')
                 (A') (A') (A') (A') (A') (A') (A') (A') (A') (A')
                 (A') (A') (A') (A') (A') (A') (A') (A') (A') (A')
                 (A') (A') (A') (A') (A') (A') (A') (A') (A') (A')
                 (A') (A') (A") (A") (A") (A") (A") (A") (A") (A")
                 (A") (A") (A") (A") (A") (A") (A") (A") (A") (A")
                 (A") (A") (A") (A") (A")
 The electronic state of the initial guess is 1-A'.
 Generating alternative initial guess.
 ExpMin= 4.38D-02 ExpMax= 5.48D+03 ExpMxC= 8.25D+02 IAcc=2 IRadAn=         4 AccDes= 0.00D+00
 Harris functional with IExCor=  402 and IRadAn=       4 diagonalized for initial guess.
 HarFok:  IExCor=  402 AccDes= 0.00D+00 IRadAn=         4 IDoV= 1 UseB2=F ITyADJ=14
 ICtDFT=  3500011 ScaDFX=  1.000000  1.000000  1.000000  1.000000
 FoFCou: FMM=F IPFlag=           0 FMFlag=      100000 FMFlg1=           0
         NFxFlg=           0 DoJE=T BraDBF=F KetDBF=T FulRan=T
         wScrn=  0.000000 ICntrl=     500 IOpCl=  0 I1Cent=   200000004 NGrid=           0
         NMat0=    1 NMatS0=      1 NMatT0=    0 NMatD0=    1 NMtDS0=    0 NMtDT0=    0
 Petite list used in FoFCou.
 Harris En= -228.744708175615    
 Leave Link  401 at Tue Sep 17 13:12:15 2024, MaxMem=   268435456 cpu:         1.8
 (Enter /g100_work/pMI24_ChiCa/g09d1/g09d01/d01/build-node-6-2-59348/src/main/l502.exe)
 Closed shell SCF:
 Using DIIS extrapolation, IDIIS=  1040.
 Integral symmetry usage will be decided dynamically.
 Keep R1 ints in memory in symmetry-blocked form, NReq=13364509.
 IVT=       46381 IEndB=       46381 NGot=   268435456 MDV=   263834430
 LenX=   263834430 LenY=   263825708
 Requested convergence on RMS density matrix=1.00D-08 within 128 cycles.
 Requested convergence on MAX density matrix=1.00D-06.
 Requested convergence on             energy=1.00D-06.
 No special actions if energy rises.
 FoFCou: FMM=F IPFlag=           0 FMFlag=           0 FMFlg1=           0
         NFxFlg=           0 DoJE=F BraDBF=F KetDBF=F FulRan=T
         wScrn=  0.000000 ICntrl=     600 IOpCl=  0 I1Cent=           0 NGrid=           0
         NMat0=    1 NMatS0=   4186 NMatT0=    0 NMatD0=    1 NMtDS0=    0 NMtDT0=    0
 Petite list used in FoFCou.

 Cycle   1  Pass 1  IDiag  1:
 Inv3:  Mode=1 IEnd=     1186923.
 Iteration    1 A*A^-1 deviation from unit magnitude is 4.00D-15 for    432.
 Iteration    1 A*A^-1 deviation from orthogonality  is 3.11D-15 for    485     70.
 Iteration    1 A^-1*A deviation from unit magnitude is 2.89D-15 for     55.
 Iteration    1 A^-1*A deviation from orthogonality  is 1.61D-11 for    605    526.
 E= -228.650140183211    
 DIIS: error= 4.53D-03 at cycle   1 NSaved=   1.
 NSaved= 1 IEnMin= 1 EnMin= -228.650140183211     IErMin= 1 ErrMin= 4.53D-03
 ErrMax= 4.53D-03  0.00D+00 EMaxC= 1.00D-01 BMatC= 3.13D-03 BMatP= 3.13D-03
 IDIUse=3 WtCom= 9.55D-01 WtEn= 4.53D-02
 Coeff-Com:  0.100D+01
 Coeff-En:   0.100D+01
 Coeff:      0.100D+01
 Gap=     0.438 Goal=   None    Shift=    0.000
 GapD=    0.438 DampG=2.000 DampE=1.000 DampFc=2.0000 IDamp=-1.
 RMSDP=1.09D-03 MaxDP=1.50D-02              OVMax= 2.83D-02

 Cycle   2  Pass 1  IDiag  1:
 E= -228.654967171527     Delta-E=       -0.004826988317 Rises=F Damp=F
 DIIS: error= 1.47D-03 at cycle   2 NSaved=   2.
 NSaved= 2 IEnMin= 2 EnMin= -228.654967171527     IErMin= 2 ErrMin= 1.47D-03
 ErrMax= 1.47D-03  0.00D+00 EMaxC= 1.00D-01 BMatC= 3.84D-04 BMatP= 3.13D-03
 IDIUse=3 WtCom= 9.85D-01 WtEn= 1.47D-02
 Coeff-Com:  0.144D+00 0.856D+00
 Coeff-En:   0.000D+00 0.100D+01
 Coeff:      0.142D+00 0.858D+00
 Gap=     0.256 Goal=   None    Shift=    0.000
 RMSDP=3.77D-04 MaxDP=8.08D-03 DE=-4.83D-03 OVMax= 1.28D-02

 Cycle   3  Pass 1  IDiag  1:
 E= -228.654868519065     Delta-E=        0.000098652462 Rises=F Damp=F
 DIIS: error= 2.03D-03 at cycle   3 NSaved=   3.
 NSaved= 3 IEnMin= 2 EnMin= -228.654967171527     IErMin= 2 ErrMin= 1.47D-03
 ErrMax= 2.03D-03  0.00D+00 EMaxC= 1.00D-01 BMatC= 5.65D-04 BMatP= 3.84D-04
 IDIUse=3 WtCom= 1.82D-01 WtEn= 8.18D-01
 Coeff-Com: -0.164D-01 0.555D+00 0.461D+00
 Coeff-En:   0.000D+00 0.556D+00 0.444D+00
 Coeff:     -0.297D-02 0.556D+00 0.447D+00
 Gap=     0.261 Goal=   None    Shift=    0.000
 RMSDP=2.26D-04 MaxDP=5.79D-03 DE= 9.87D-05 OVMax= 8.01D-03

 Cycle   4  Pass 1  IDiag  1:
 E= -228.655295950003     Delta-E=       -0.000427430938 Rises=F Damp=F
 DIIS: error= 6.83D-04 at cycle   4 NSaved=   4.
 NSaved= 4 IEnMin= 4 EnMin= -228.655295950003     IErMin= 4 ErrMin= 6.83D-04
 ErrMax= 6.83D-04  0.00D+00 EMaxC= 1.00D-01 BMatC= 3.71D-05 BMatP= 3.84D-04
 IDIUse=3 WtCom= 9.93D-01 WtEn= 6.83D-03
 Coeff-Com: -0.156D-01 0.254D+00 0.270D+00 0.492D+00
 Coeff-En:   0.000D+00 0.000D+00 0.000D+00 0.100D+01
 Coeff:     -0.155D-01 0.252D+00 0.268D+00 0.495D+00
 Gap=     0.260 Goal=   None    Shift=    0.000
 RMSDP=6.00D-05 MaxDP=1.35D-03 DE=-4.27D-04 OVMax= 2.55D-03

 Cycle   5  Pass 1  IDiag  1:
 E= -228.655323984712     Delta-E=       -0.000028034709 Rises=F Damp=F
 DIIS: error= 1.16D-04 at cycle   5 NSaved=   5.
 NSaved= 5 IEnMin= 5 EnMin= -228.655323984712     IErMin= 5 ErrMin= 1.16D-04
 ErrMax= 1.16D-04  0.00D+00 EMaxC= 1.00D-01 BMatC= 2.48D-06 BMatP= 3.71D-05
 IDIUse=3 WtCom= 9.99D-01 WtEn= 1.16D-03
 Coeff-Com: -0.650D-02 0.528D-01 0.774D-01 0.245D+00 0.632D+00
 Coeff-En:   0.000D+00 0.000D+00 0.000D+00 0.000D+00 0.100D+01
 Coeff:     -0.649D-02 0.527D-01 0.773D-01 0.244D+00 0.632D+00
 Gap=     0.260 Goal=   None    Shift=    0.000
 RMSDP=1.66D-05 MaxDP=3.58D-04 DE=-2.80D-05 OVMax= 3.99D-04

 Cycle   6  Pass 1  IDiag  1:
 E= -228.655325806230     Delta-E=       -0.000001821518 Rises=F Damp=F
 DIIS: error= 7.01D-05 at cycle   6 NSaved=   6.
 NSaved= 6 IEnMin= 6 EnMin= -228.655325806230     IErMin= 6 ErrMin= 7.01D-05
 ErrMax= 7.01D-05  0.00D+00 EMaxC= 1.00D-01 BMatC= 4.10D-07 BMatP= 2.48D-06
 IDIUse=1 WtCom= 1.00D+00 WtEn= 0.00D+00
 Coeff-Com: -0.217D-02 0.111D-01 0.249D-01 0.108D+00 0.373D+00 0.485D+00
 Coeff:     -0.217D-02 0.111D-01 0.249D-01 0.108D+00 0.373D+00 0.485D+00
 Gap=     0.260 Goal=   None    Shift=    0.000
 RMSDP=5.89D-06 MaxDP=1.74D-04 DE=-1.82D-06 OVMax= 1.94D-04

 Cycle   7  Pass 1  IDiag  1:
 E= -228.655326104193     Delta-E=       -0.000000297963 Rises=F Damp=F
 DIIS: error= 1.27D-05 at cycle   7 NSaved=   7.
 NSaved= 7 IEnMin= 7 EnMin= -228.655326104193     IErMin= 7 ErrMin= 1.27D-05
 ErrMax= 1.27D-05  0.00D+00 EMaxC= 1.00D-01 BMatC= 2.00D-08 BMatP= 4.10D-07
 IDIUse=1 WtCom= 1.00D+00 WtEn= 0.00D+00
 Coeff-Com:  0.370D-03-0.689D-02-0.675D-02-0.455D-02 0.136D-01 0.188D+00
 Coeff-Com:  0.816D+00
 Coeff:      0.370D-03-0.689D-02-0.675D-02-0.455D-02 0.136D-01 0.188D+00
 Coeff:      0.816D+00
 Gap=     0.260 Goal=   None    Shift=    0.000
 RMSDP=1.88D-06 MaxDP=2.69D-05 DE=-2.98D-07 OVMax= 5.63D-05

 Cycle   8  Pass 1  IDiag  1:
 E= -228.655326121873     Delta-E=       -0.000000017680 Rises=F Damp=F
 DIIS: error= 2.39D-06 at cycle   8 NSaved=   8.
 NSaved= 8 IEnMin= 8 EnMin= -228.655326121873     IErMin= 8 ErrMin= 2.39D-06
 ErrMax= 2.39D-06  0.00D+00 EMaxC= 1.00D-01 BMatC= 6.07D-10 BMatP= 2.00D-08
 IDIUse=1 WtCom= 1.00D+00 WtEn= 0.00D+00
 Coeff-Com:  0.766D-04-0.685D-03-0.143D-02-0.819D-03-0.997D-02 0.786D-02
 Coeff-Com:  0.419D-01 0.963D+00
 Coeff:      0.766D-04-0.685D-03-0.143D-02-0.819D-03-0.997D-02 0.786D-02
 Coeff:      0.419D-01 0.963D+00
 Gap=     0.260 Goal=   None    Shift=    0.000
 RMSDP=3.32D-07 MaxDP=3.91D-06 DE=-1.77D-08 OVMax= 7.00D-06

 Cycle   9  Pass 1  IDiag  1:
 E= -228.655326122393     Delta-E=       -0.000000000520 Rises=F Damp=F
 DIIS: error= 2.55D-07 at cycle   9 NSaved=   9.
 NSaved= 9 IEnMin= 9 EnMin= -228.655326122393     IErMin= 9 ErrMin= 2.55D-07
 ErrMax= 2.55D-07  0.00D+00 EMaxC= 1.00D-01 BMatC= 1.18D-11 BMatP= 6.07D-10
 IDIUse=1 WtCom= 1.00D+00 WtEn= 0.00D+00
 Coeff-Com:  0.105D-04 0.144D-04-0.248D-03-0.125D-04-0.364D-02-0.340D-02
 Coeff-Com: -0.148D-01 0.298D+00 0.724D+00
 Coeff:      0.105D-04 0.144D-04-0.248D-03-0.125D-04-0.364D-02-0.340D-02
 Coeff:     -0.148D-01 0.298D+00 0.724D+00
 Gap=     0.260 Goal=   None    Shift=    0.000
 RMSDP=4.92D-08 MaxDP=7.86D-07 DE=-5.20D-10 OVMax= 1.15D-06

 Cycle  10  Pass 1  IDiag  1:
 E= -228.655326122408     Delta-E=       -0.000000000015 Rises=F Damp=F
 DIIS: error= 9.83D-08 at cycle  10 NSaved=  10.
 NSaved=10 IEnMin=10 EnMin= -228.655326122408     IErMin=10 ErrMin= 9.83D-08
 ErrMax= 9.83D-08  0.00D+00 EMaxC= 1.00D-01 BMatC= 1.27D-12 BMatP= 1.18D-11
 IDIUse=1 WtCom= 1.00D+00 WtEn= 0.00D+00
 Coeff-Com:  0.740D-06 0.406D-04-0.189D-04 0.167D-04-0.808D-03-0.182D-02
 Coeff-Com: -0.822D-02 0.519D-01 0.307D+00 0.652D+00
 Coeff:      0.740D-06 0.406D-04-0.189D-04 0.167D-04-0.808D-03-0.182D-02
 Coeff:     -0.822D-02 0.519D-01 0.307D+00 0.652D+00
 Gap=     0.260 Goal=   None    Shift=    0.000
 RMSDP=1.40D-08 MaxDP=2.30D-07 DE=-1.47D-11 OVMax= 3.42D-07

 Cycle  11  Pass 1  IDiag  1:
 E= -228.655326122405     Delta-E=        0.000000000003 Rises=F Damp=F
 DIIS: error= 1.32D-08 at cycle  11 NSaved=  11.
 NSaved=11 IEnMin=10 EnMin= -228.655326122408     IErMin=11 ErrMin= 1.32D-08
 ErrMax= 1.32D-08  0.00D+00 EMaxC= 1.00D-01 BMatC= 1.87D-14 BMatP= 1.27D-12
 IDIUse=1 WtCom= 1.00D+00 WtEn= 0.00D+00
 Coeff-Com: -0.520D-06 0.575D-05 0.117D-04 0.310D-05 0.107D-03-0.312D-04
 Coeff-Com: -0.306D-03-0.906D-02 0.885D-02 0.118D+00 0.882D+00
 Coeff:     -0.520D-06 0.575D-05 0.117D-04 0.310D-05 0.107D-03-0.312D-04
 Coeff:     -0.306D-03-0.906D-02 0.885D-02 0.118D+00 0.882D+00
 Gap=     0.260 Goal=   None    Shift=    0.000
 RMSDP=2.32D-09 MaxDP=2.94D-08 DE= 2.67D-12 OVMax= 4.96D-08

 Error on total polarization charges =  0.06367
 SCF Done:  E(RB3LYP) =  -228.655326122     A.U. after   11 cycles
            NFock= 11  Conv=0.23D-08     -V/T= 2.0096
 KE= 2.264728621313D+02 PE=-7.663301922598D+02 EE= 2.000551815072D+02
 SMD-CDS (non-electrostatic) energy       (kcal/mol) =       3.62
 (included in total energy above)
 Leave Link  502 at Tue Sep 17 13:12:16 2024, MaxMem=   268435456 cpu:        20.6
 (Enter /g100_work/pMI24_ChiCa/g09d1/g09d01/d01/build-node-6-2-59348/src/main/l701.exe)
 Compute integral first derivatives.
 ... and contract with generalized density number  0.
 D1PCM: PCM CHGder 1st derivatives, ID1Alg=3 FixD1E=F DoIter=F DoCFld=F I1PDM=0.
 GePol: Maximum number of non-zero 1st derivatives   =     259
 Leave Link  701 at Tue Sep 17 13:12:16 2024, MaxMem=   268435456 cpu:         4.2
 (Enter /g100_work/pMI24_ChiCa/g09d1/g09d01/d01/build-node-6-2-59348/src/main/l702.exe)
 L702 exits ... SP integral derivatives will be done elsewhere.
 Leave Link  702 at Tue Sep 17 13:12:16 2024, MaxMem=   268435456 cpu:         0.1
 (Enter /g100_work/pMI24_ChiCa/g09d1/g09d01/d01/build-node-6-2-59348/src/main/l703.exe)
 Compute integral first derivatives, UseDBF=F ICtDFT=           0.
 Integral derivatives from FoFJK, PRISM(SPDF).
 Calling FoFJK, ICntrl=      2127 FMM=F ISym2X=1 I1Cent= 0 IOpClX= 0 NMat=1 NMatS=1 NMatT=0.
 FoFJK:  IHMeth= 1 ICntrl=    2127 DoSepK=F KAlg= 0 I1Cent=   0 FoldK=F
 IRaf=         0 NMat=   1 IRICut=       1 DoRegI=T DoRafI=F ISym2E= 1.
 FoFCou: FMM=F IPFlag=           0 FMFlag=      100000 FMFlg1=         800
         NFxFlg=           0 DoJE=F BraDBF=F KetDBF=F FulRan=T
         wScrn=  0.000000 ICntrl=    2127 IOpCl=  0 I1Cent=           0 NGrid=           0
         NMat0=    1 NMatS0=      1 NMatT0=    0 NMatD0=    1 NMtDS0=    0 NMtDT0=    0
 Petite list used in FoFCou.
 Leave Link  703 at Tue Sep 17 13:12:16 2024, MaxMem=   268435456 cpu:         3.4
 (Enter /g100_work/pMI24_ChiCa/g09d1/g09d01/d01/build-node-6-2-59348/src/main/l716.exe)
 Dipole        =-7.46073644D-01-2.37523981D+00 2.22044605D-16
 ***** Axes restored to original set *****
 -------------------------------------------------------------------
 Center     Atomic                   Forces (Hartrees/Bohr)
 Number     Number              X              Y              Z
 -------------------------------------------------------------------
      1        6          -0.016534070   -0.000000000    0.052522078
      2        8           0.001892832    0.000000000   -0.031954018
      3        8           0.016685401   -0.000000000   -0.014465132
      4        6          -0.000241143   -0.000000000   -0.001507325
      5        1           0.000229974   -0.000000000    0.000030467
      6        1          -0.001016497    0.000347630   -0.002313035
      7        1          -0.001016497   -0.000347630   -0.002313035
 -------------------------------------------------------------------
 Cartesian Forces:  Max     0.052522078 RMS     0.014735156
 Leave Link  716 at Tue Sep 17 13:12:17 2024, MaxMem=   268435456 cpu:         0.1
 (Enter /g100_work/pMI24_ChiCa/g09d1/g09d01/d01/build-node-6-2-59348/src/main/l103.exe)

 GradGradGradGradGradGradGradGradGradGradGradGradGradGradGradGradGradGrad
 Berny optimization.
 Using GEDIIS/GDIIS optimizer.
 FormGI is forming the generalized inverse of G from B-inverse, IUseBI=4.
 Internal  Forces:  Max     0.031991162 RMS     0.008732432
 Search for a local minimum.
 Step number   2 out of a maximum of   31
 All quantities printed in internal units (Hartrees-Bohrs-Radians)
 RMS Force = .87324D-02 SwitMx=.10000D-02 MixMth= 1
 Mixed Optimization -- RFO/linear search
 Update second derivatives using D2CorX and points    1    2
 DE= -1.15D-02 DEPred=-8.77D-03 R= 1.31D+00
 TightC=F SS=  1.41D+00  RLast= 2.00D-01 DXNew= 5.0454D-01 6.0125D-01
 Trust test= 1.31D+00 RLast= 2.00D-01 DXMaxT set to 5.05D-01
 ITU=  1  0
 Use linear search instead of GDIIS.
     Eigenvalues ---    0.00766   0.00766   0.07214   0.07642   0.15791
     Eigenvalues ---    0.16000   0.16273   0.22681   0.27063   0.29645
     Eigenvalues ---    0.33425   0.37230   0.37275   0.40297   0.90063
 RFO step:  Lambda=-2.43959851D-03 EMin= 7.65947438D-03
 Quartic linear search produced a step of  0.49389.
 Iteration  1 RMS(Cart)=  0.01985019 RMS(Int)=  0.00024835
 Iteration  2 RMS(Cart)=  0.00035524 RMS(Int)=  0.00007084
 Iteration  3 RMS(Cart)=  0.00000006 RMS(Int)=  0.00007084
 ITry= 1 IFail=0 DXMaxC= 6.59D-02 DCOld= 1.00D+10 DXMaxT= 5.05D-01 DXLimC= 3.00D+00 Rises=F
 ClnCor:  largest displacement from symmetrization is 2.20D-11 for atom     5.
 Variable       Old X    -DE/DX   Delta X   Delta X   Delta X     New X
                                 (Linear)    (Quad)   (Total)
    R1        2.49923  -0.03199  -0.07230  -0.04776  -0.12006   2.37917
    R2        2.35271   0.02171   0.02333   0.01671   0.04005   2.39275
    R3        2.86169   0.00476   0.01339   0.01089   0.02428   2.88597
    R4        2.06205  -0.00017   0.01978  -0.01649   0.00329   2.06533
    R5        2.06572   0.00169   0.02159  -0.01052   0.01106   2.07678
    R6        2.06572   0.00169   0.02159  -0.01052   0.01106   2.07678
    A1        2.14846   0.00273   0.02670  -0.00651   0.02019   2.16865
    A2        2.03576   0.00382  -0.02896   0.04716   0.01820   2.05396
    A3        2.09897  -0.00655   0.00226  -0.04065  -0.03839   2.06058
    A4        1.95575  -0.00070   0.02228  -0.02653  -0.00434   1.95141
    A5        1.90269   0.00187  -0.00392   0.02046   0.01640   1.91909
    A6        1.90269   0.00187  -0.00392   0.02046   0.01640   1.91909
    A7        1.90638  -0.00040  -0.00210  -0.00094  -0.00313   1.90325
    A8        1.90638  -0.00040  -0.00210  -0.00094  -0.00313   1.90325
    A9        1.88878  -0.00230  -0.01079  -0.01216  -0.02314   1.86564
    D1       -0.00000   0.00000   0.00000  -0.00000   0.00000   0.00000
    D2        2.11236   0.00032   0.00887  -0.00441   0.00442   2.11678
    D3       -2.11236  -0.00032  -0.00887   0.00441  -0.00442  -2.11678
    D4        3.14159   0.00000   0.00000   0.00000   0.00000   3.14159
    D5       -1.02924   0.00032   0.00887  -0.00441   0.00442  -1.02482
    D6        1.02924  -0.00032  -0.00887   0.00441  -0.00442   1.02482
         Item               Value     Threshold  Converged?
 Maximum Force            0.031991     0.000450     NO 
 RMS     Force            0.008732     0.000300     NO 
 Maximum Displacement     0.065948     0.001800     NO 
 RMS     Displacement     0.019803     0.001200     NO 
 Predicted change in Energy=-2.817404D-03
 Lowest energy point so far.  Saving SCF results.
 GradGradGradGradGradGradGradGradGradGradGradGradGradGradGradGradGradGrad

 Leave Link  103 at Tue Sep 17 13:12:17 2024, MaxMem=   268435456 cpu:         1.2
 (Enter /g100_work/pMI24_ChiCa/g09d1/g09d01/d01/build-node-6-2-59348/src/main/l202.exe)
                          Input orientation:                          
 ---------------------------------------------------------------------
 Center     Atomic      Atomic             Coordinates (Angstroms)
 Number     Number       Type             X           Y           Z
 ---------------------------------------------------------------------
      1          6           0        0.023819   -0.000000    0.051382
      2          8           0       -0.029499   -0.000000    1.309256
      3          8           0        1.099627   -0.000000   -0.616358
      4          6           0       -1.297292    0.000000   -0.714759
      5          1           0       -2.157567    0.000000   -0.040653
      6          1           0       -1.352668    0.882818   -1.366934
      7          1           0       -1.352668   -0.882818   -1.366934
 ---------------------------------------------------------------------
                    Distance matrix (angstroms):
                    1          2          3          4          5
     1  C    0.000000
     2  O    1.259003   0.000000
     3  O    1.266191   2.232244   0.000000
     4  C    1.527190   2.388291   2.398938   0.000000
     5  H    2.183327   2.520105   3.307680   1.092928   0.000000
     6  H    2.164649   3.113219   2.712283   1.098984   1.785007
     7  H    2.164649   3.113219   2.712283   1.098984   1.785007
                    6          7
     6  H    0.000000
     7  H    1.765635   0.000000
 Stoichiometry    C2H3O2(1-)
 Framework group  CS[SG(C2HO2),X(H2)]
 Deg. of freedom    10
 Full point group                 CS      NOp   2
 RotChk:  IX=0 Diff= 2.67D-01
 Largest Abelian subgroup         CS      NOp   2
 Largest concise Abelian subgroup CS      NOp   2
                         Standard orientation:                         
 ---------------------------------------------------------------------
 Center     Atomic      Atomic             Coordinates (Angstroms)
 Number     Number       Type             X           Y           Z
 ---------------------------------------------------------------------
      1          6           0        0.000000    0.176029   -0.000000
      2          8           0        1.106448    0.776747   -0.000000
      3          8           0       -1.125698    0.755722   -0.000000
      4          6           0        0.021734   -1.351006    0.000000
      5          1           0        1.042124   -1.742537    0.000000
      6          1           0       -0.509264   -1.733680    0.882818
      7          1           0       -0.509264   -1.733680   -0.882818
 ---------------------------------------------------------------------
 Rotational constants (GHZ):     11.7432568      9.8502864      5.5414464
 Leave Link  202 at Tue Sep 17 13:12:17 2024, MaxMem=   268435456 cpu:         0.1
 (Enter /g100_work/pMI24_ChiCa/g09d1/g09d01/d01/build-node-6-2-59348/src/main/l301.exe)
 Standard basis: 6-31+G(d,p) (6D, 7F)
 Ernie: Thresh=  0.10000D-02 Tol=  0.10000D-05 Strict=F.
 There are    65 symmetry adapted cartesian basis functions of A'  symmetry.
 There are    26 symmetry adapted cartesian basis functions of A"  symmetry.
 There are    65 symmetry adapted basis functions of A'  symmetry.
 There are    26 symmetry adapted basis functions of A"  symmetry.
    91 basis functions,   149 primitive gaussians,    91 cartesian basis functions
    16 alpha electrons       16 beta electrons
       nuclear repulsion energy       111.8700646256 Hartrees.
 IExCor=  402 DFT=T Ex+Corr=B3LYP ExCW=0 ScaHFX=  0.200000
 ScaDFX=  0.800000  0.720000  1.000000  0.810000 ScalE2=  1.000000  1.000000
 IRadAn=      0 IRanWt=     -1 IRanGd=            0 ICorTp=0 IEmpDi=  4
 NAtoms=    7 NActive=    7 NUniq=    6 SFac= 1.36D+00 NAtFMM=   60 NAOKFM=F Big=F
 Integral buffers will be    131072 words long.
 Raffenetti 2 integral format.
 Two-electron integral symmetry is turned on.
 ------------------------------------------------------------------------------
 Polarizable Continuum Model (PCM)
 =================================
 Model                : PCM (using non-symmetric T matrix).
 Atomic radii         : SMD-Coulomb.
 Polarization charges : Total charges.
 Charge compensation  : None.
 Solution method      : On-the-fly selection.
 Cavity type          : VdW (van der Waals Surface) (Alpha=1.000).
 Cavity algorithm     : GePol (No added spheres)
                        Default sphere list used, NSphG=    7.
                        Lebedev-Laikov grids with approx.  5.0 points / Ang**2.
                        Smoothing algorithm: Karplus/York (Gamma=1.0000).
                        Polarization charges: spherical gaussians, with
                                              point-specific exponents (IZeta= 3).
                        Self-potential: point-specific (ISelfS= 7).
                        Self-field    : sphere-specific E.n sum rule (ISelfD= 2).
 1st derivatives      : Analytical E(r).r(x)/FMM algorithm (CHGder, D1EAlg=3).
                        Cavity 1st derivative terms included.
 Solvent              : Water, Eps=  78.355300 Eps(inf)=   1.777849
 ------------------------------------------------------------------------------
 Spheres list:
 ISph  on   Nord     Re0    Alpha      Xe            Ye            Ze
    1   C      1    1.8500  1.000      0.000000      0.176029     -0.000000
    2   O      2    1.5200  1.000      1.106448      0.776747     -0.000000
    3   O      3    1.5200  1.000     -1.125698      0.755722     -0.000000
    4   C      4    1.8500  1.000      0.021734     -1.351006      0.000000
    5   H      5    1.2000  1.000      1.042124     -1.742537      0.000000
    6   H      6    1.2000  1.000     -0.509264     -1.733680      0.882818
    7   H      7    1.2000  1.000     -0.509264     -1.733680     -0.882818
 ------------------------------------------------------------------------------
 GePol: Number of generator spheres                  =       7
 GePol: Total number of spheres                      =       7
 GePol: Number of exposed spheres                    =       7 (100.00%)
 GePol: Number of points                             =     621
 GePol: Average weight of points                     =       0.13
 GePol: Minimum weight of points                     =   0.34D-09
 GePol: Maximum weight of points                     =    0.21991
 GePol: Number of points with low weight             =      19
 GePol: Fraction of low-weight points (<1% of avg)   =       3.06%
 GePol: Cavity surface area                          =     80.918 Ang**2
 GePol: Cavity volume                                =     57.228 Ang**3
 ------------------------------------------------------------------------------
 Atomic radii for non-electrostatic terms: SMD-CDS.
 ------------------------------------------------------------------------------
 PCM non-electrostatic energy =         0.0060891400 Hartrees.
 Nuclear repulsion after PCM non-electrostatic terms =      111.8761537656 Hartrees.
 Leave Link  301 at Tue Sep 17 13:12:17 2024, MaxMem=   268435456 cpu:         0.1
 (Enter /g100_work/pMI24_ChiCa/g09d1/g09d01/d01/build-node-6-2-59348/src/main/l302.exe)
 NPDir=0 NMtPBC=     1 NCelOv=     1 NCel=       1 NClECP=     1 NCelD=      1
         NCelK=      1 NCelE2=     1 NClLst=     1 CellRange=     0.0.
 One-electron integrals computed using PRISM.
 One-electron integral symmetry used in STVInt
 NBasis=    91 RedAO= T EigKep=  3.79D-04  NBF=    65    26
 NBsUse=    91 1.00D-06 EigRej= -1.00D+00 NBFU=    65    26
 Precomputing XC quadrature grid using
 IXCGrd= 4 IRadAn=           0 IRanWt=          -1 IRanGd=           0 AccXCQ= 0.00D+00.
 Generated NRdTot=       0 NPtTot=           0 NUsed=           0 NTot=          32
 NSgBfM=    91    91    91    91    91 MxSgAt=     7 MxSgA2=     7.
 Leave Link  302 at Tue Sep 17 13:12:17 2024, MaxMem=   268435456 cpu:         1.3
 (Enter /g100_work/pMI24_ChiCa/g09d1/g09d01/d01/build-node-6-2-59348/src/main/l303.exe)
 DipDrv:  MaxL=1.
 Leave Link  303 at Tue Sep 17 13:12:17 2024, MaxMem=   268435456 cpu:         0.2
 (Enter /g100_work/pMI24_ChiCa/g09d1/g09d01/d01/build-node-6-2-59348/src/main/l401.exe)
 Initial guess from the checkpoint file:  "/g100_scratch/userexternal/ecabiati/g16_14416499/Gau-53287.chk"
 B after Tr=    -0.000000    0.000000    0.000000
         Rot=    0.995454   -0.000000    0.000000   -0.095246 Ang= -10.93 deg.
 Guess basis will be translated and rotated to current coordinates.
 JPrj=2 DoOrth=T DoCkMO=T.
 Initial guess orbital symmetries:
       Occupied  (A') (A') (A') (A') (A') (A') (A') (A') (A") (A')
                 (A') (A') (A") (A") (A') (A')
       Virtual   (A') (A') (A') (A') (A') (A') (A') (A') (A') (A')
                 (A') (A') (A') (A') (A') (A') (A') (A') (A') (A')
                 (A') (A') (A') (A') (A') (A') (A') (A') (A') (A')
                 (A') (A') (A') (A') (A') (A') (A') (A') (A') (A')
                 (A') (A') (A') (A') (A') (A') (A') (A') (A') (A')
                 (A') (A') (A") (A") (A") (A") (A") (A") (A") (A")
                 (A") (A") (A") (A") (A") (A") (A") (A") (A") (A")
                 (A") (A") (A") (A") (A")
 The electronic state of the initial guess is 1-A'.
 Generating alternative initial guess.
 ExpMin= 4.38D-02 ExpMax= 5.48D+03 ExpMxC= 8.25D+02 IAcc=2 IRadAn=         4 AccDes= 0.00D+00
 Harris functional with IExCor=  402 and IRadAn=       4 diagonalized for initial guess.
 HarFok:  IExCor=  402 AccDes= 0.00D+00 IRadAn=         4 IDoV= 1 UseB2=F ITyADJ=14
 ICtDFT=  3500011 ScaDFX=  1.000000  1.000000  1.000000  1.000000
 FoFCou: FMM=F IPFlag=           0 FMFlag=      100000 FMFlg1=           0
         NFxFlg=           0 DoJE=T BraDBF=F KetDBF=T FulRan=T
         wScrn=  0.000000 ICntrl=     500 IOpCl=  0 I1Cent=   200000004 NGrid=           0
         NMat0=    1 NMatS0=      1 NMatT0=    0 NMatD0=    1 NMtDS0=    0 NMtDT0=    0
 Petite list used in FoFCou.
 Harris En= -228.748103694869    
 Leave Link  401 at Tue Sep 17 13:12:17 2024, MaxMem=   268435456 cpu:         1.8
 (Enter /g100_work/pMI24_ChiCa/g09d1/g09d01/d01/build-node-6-2-59348/src/main/l502.exe)
 Closed shell SCF:
 Using DIIS extrapolation, IDIIS=  1040.
 Integral symmetry usage will be decided dynamically.
 Keep R1 ints in memory in symmetry-blocked form, NReq=13364509.
 IVT=       46381 IEndB=       46381 NGot=   268435456 MDV=   263834430
 LenX=   263834430 LenY=   263825708
 Requested convergence on RMS density matrix=1.00D-08 within 128 cycles.
 Requested convergence on MAX density matrix=1.00D-06.
 Requested convergence on             energy=1.00D-06.
 No special actions if energy rises.
 FoFCou: FMM=F IPFlag=           0 FMFlag=           0 FMFlg1=           0
         NFxFlg=           0 DoJE=F BraDBF=F KetDBF=F FulRan=T
         wScrn=  0.000000 ICntrl=     600 IOpCl=  0 I1Cent=           0 NGrid=           0
         NMat0=    1 NMatS0=   4186 NMatT0=    0 NMatD0=    1 NMtDS0=    0 NMtDT0=    0
 Petite list used in FoFCou.

 Cycle   1  Pass 1  IDiag  1:
 Inv3:  Mode=1 IEnd=     1156923.
 Iteration    1 A*A^-1 deviation from unit magnitude is 4.22D-15 for     10.
 Iteration    1 A*A^-1 deviation from orthogonality  is 3.96D-15 for    356    123.
 Iteration    1 A^-1*A deviation from unit magnitude is 3.55D-15 for    311.
 Iteration    1 A^-1*A deviation from orthogonality  is 2.30D-11 for    449    363.
 E= -228.654032493612    
 DIIS: error= 3.44D-03 at cycle   1 NSaved=   1.
 NSaved= 1 IEnMin= 1 EnMin= -228.654032493612     IErMin= 1 ErrMin= 3.44D-03
 ErrMax= 3.44D-03  0.00D+00 EMaxC= 1.00D-01 BMatC= 2.34D-03 BMatP= 2.34D-03
 IDIUse=3 WtCom= 9.66D-01 WtEn= 3.44D-02
 Coeff-Com:  0.100D+01
 Coeff-En:   0.100D+01
 Coeff:      0.100D+01
 Gap=     0.442 Goal=   None    Shift=    0.000
 GapD=    0.442 DampG=2.000 DampE=1.000 DampFc=2.0000 IDamp=-1.
 RMSDP=9.24D-04 MaxDP=1.23D-02              OVMax= 2.06D-02

 Cycle   2  Pass 1  IDiag  1:
 E= -228.657256827265     Delta-E=       -0.003224333653 Rises=F Damp=F
 DIIS: error= 2.66D-03 at cycle   2 NSaved=   2.
 NSaved= 2 IEnMin= 2 EnMin= -228.657256827265     IErMin= 2 ErrMin= 2.66D-03
 ErrMax= 2.66D-03  0.00D+00 EMaxC= 1.00D-01 BMatC= 5.59D-04 BMatP= 2.34D-03
 IDIUse=3 WtCom= 9.73D-01 WtEn= 2.66D-02
 Coeff-Com:  0.247D+00 0.753D+00
 Coeff-En:   0.000D+00 0.100D+01
 Coeff:      0.241D+00 0.759D+00
 Gap=     0.263 Goal=   None    Shift=    0.000
 RMSDP=4.34D-04 MaxDP=1.07D-02 DE=-3.22D-03 OVMax= 1.92D-02

 Cycle   3  Pass 1  IDiag  1:
 E= -228.657003363627     Delta-E=        0.000253463638 Rises=F Damp=F
 DIIS: error= 3.37D-03 at cycle   3 NSaved=   3.
 NSaved= 3 IEnMin= 2 EnMin= -228.657256827265     IErMin= 2 ErrMin= 2.66D-03
 ErrMax= 3.37D-03  0.00D+00 EMaxC= 1.00D-01 BMatC= 9.10D-04 BMatP= 5.59D-04
 IDIUse=3 WtCom= 1.47D-01 WtEn= 8.53D-01
 Coeff-Com: -0.109D-01 0.566D+00 0.445D+00
 Coeff-En:   0.000D+00 0.591D+00 0.409D+00
 Coeff:     -0.160D-02 0.588D+00 0.414D+00
 Gap=     0.263 Goal=   None    Shift=    0.000
 RMSDP=2.38D-04 MaxDP=5.56D-03 DE= 2.53D-04 OVMax= 9.60D-03

 Cycle   4  Pass 1  IDiag  1:
 E= -228.657679966829     Delta-E=       -0.000676603203 Rises=F Damp=F
 DIIS: error= 2.09D-04 at cycle   4 NSaved=   4.
 NSaved= 4 IEnMin= 4 EnMin= -228.657679966829     IErMin= 4 ErrMin= 2.09D-04
 ErrMax= 2.09D-04  0.00D+00 EMaxC= 1.00D-01 BMatC= 6.84D-06 BMatP= 5.59D-04
 IDIUse=3 WtCom= 9.98D-01 WtEn= 2.09D-03
 Coeff-Com: -0.137D-01 0.188D+00 0.131D+00 0.695D+00
 Coeff-En:   0.000D+00 0.000D+00 0.000D+00 0.100D+01
 Coeff:     -0.137D-01 0.187D+00 0.130D+00 0.696D+00
 Gap=     0.263 Goal=   None    Shift=    0.000
 RMSDP=3.45D-05 MaxDP=6.57D-04 DE=-6.77D-04 OVMax= 7.81D-04

 Cycle   5  Pass 1  IDiag  1:
 E= -228.657685234963     Delta-E=       -0.000005268134 Rises=F Damp=F
 DIIS: error= 1.25D-04 at cycle   5 NSaved=   5.
 NSaved= 5 IEnMin= 5 EnMin= -228.657685234963     IErMin= 5 ErrMin= 1.25D-04
 ErrMax= 1.25D-04  0.00D+00 EMaxC= 1.00D-01 BMatC= 1.38D-06 BMatP= 6.84D-06
 IDIUse=3 WtCom= 9.99D-01 WtEn= 1.25D-03
 Coeff-Com: -0.510D-02 0.401D-01 0.269D-01 0.344D+00 0.594D+00
 Coeff-En:   0.000D+00 0.000D+00 0.000D+00 0.842D-01 0.916D+00
 Coeff:     -0.510D-02 0.400D-01 0.269D-01 0.344D+00 0.594D+00
 Gap=     0.263 Goal=   None    Shift=    0.000
 RMSDP=1.30D-05 MaxDP=2.32D-04 DE=-5.27D-06 OVMax= 3.18D-04

 Cycle   6  Pass 1  IDiag  1:
 E= -228.657686464594     Delta-E=       -0.000001229631 Rises=F Damp=F
 DIIS: error= 3.43D-05 at cycle   6 NSaved=   6.
 NSaved= 6 IEnMin= 6 EnMin= -228.657686464594     IErMin= 6 ErrMin= 3.43D-05
 ErrMax= 3.43D-05  0.00D+00 EMaxC= 1.00D-01 BMatC= 9.12D-08 BMatP= 1.38D-06
 IDIUse=1 WtCom= 1.00D+00 WtEn= 0.00D+00
 Coeff-Com: -0.135D-02 0.608D-02 0.375D-02 0.118D+00 0.277D+00 0.596D+00
[...]
 Coeff:      0.907D+00
 Gap=     0.263 Goal=   None    Shift=    0.000
 RMSDP=3.62D-08 MaxDP=4.19D-07 DE=-1.89D-10 OVMax= 1.17D-06

 Cycle   8  Pass 1  IDiag  1:
 E= -228.658062802915     Delta-E=       -0.000000000006 Rises=F Damp=F
 DIIS: error= 5.28D-08 at cycle   8 NSaved=   8.
 NSaved= 8 IEnMin= 8 EnMin= -228.658062802915     IErMin= 8 ErrMin= 5.28D-08
 ErrMax= 5.28D-08  0.00D+00 EMaxC= 1.00D-01 BMatC= 2.56D-13 BMatP= 3.61D-12
 IDIUse=1 WtCom= 1.00D+00 WtEn= 0.00D+00
 Coeff-Com:  0.134D-03-0.151D-02-0.229D-02-0.299D-02-0.755D-02 0.155D-01
 Coeff-Com:  0.212D+00 0.787D+00
 Coeff:      0.134D-03-0.151D-02-0.229D-02-0.299D-02-0.755D-02 0.155D-01
 Coeff:      0.212D+00 0.787D+00
 Gap=     0.263 Goal=   None    Shift=    0.000
 RMSDP=6.73D-09 MaxDP=8.35D-08 DE=-5.57D-12 OVMax= 1.22D-07

 Error on total polarization charges =  0.06317
 SCF Done:  E(RB3LYP) =  -228.658062803     A.U. after    8 cycles
            NFock=  8  Conv=0.67D-08     -V/T= 2.0096
 KE= 2.264904764306D+02 PE=-7.667715276285D+02 EE= 2.002651296632D+02
 SMD-CDS (non-electrostatic) energy       (kcal/mol) =       3.74
 (included in total energy above)
 Leave Link  502 at Tue Sep 17 13:12:25 2024, MaxMem=   268435456 cpu:        16.1
 (Enter /g100_work/pMI24_ChiCa/g09d1/g09d01/d01/build-node-6-2-59348/src/main/l701.exe)
 Compute integral first derivatives.
 ... and contract with generalized density number  0.
 D1PCM: PCM CHGder 1st derivatives, ID1Alg=3 FixD1E=F DoIter=F DoCFld=F I1PDM=0.
 GePol: Maximum number of non-zero 1st derivatives   =     254
 Leave Link  701 at Tue Sep 17 13:12:25 2024, MaxMem=   268435456 cpu:         4.1
 (Enter /g100_work/pMI24_ChiCa/g09d1/g09d01/d01/build-node-6-2-59348/src/main/l702.exe)
 L702 exits ... SP integral derivatives will be done elsewhere.
 Leave Link  702 at Tue Sep 17 13:12:25 2024, MaxMem=   268435456 cpu:         0.1
 (Enter /g100_work/pMI24_ChiCa/g09d1/g09d01/d01/build-node-6-2-59348/src/main/l703.exe)
 Compute integral first derivatives, UseDBF=F ICtDFT=           0.
 Integral derivatives from FoFJK, PRISM(SPDF).
 Calling FoFJK, ICntrl=      2127 FMM=F ISym2X=1 I1Cent= 0 IOpClX= 0 NMat=1 NMatS=1 NMatT=0.
 FoFJK:  IHMeth= 1 ICntrl=    2127 DoSepK=F KAlg= 0 I1Cent=   0 FoldK=F
 IRaf=         0 NMat=   1 IRICut=       1 DoRegI=T DoRafI=F ISym2E= 1.
 FoFCou: FMM=F IPFlag=           0 FMFlag=      100000 FMFlg1=         800
         NFxFlg=           0 DoJE=F BraDBF=F KetDBF=F FulRan=T
         wScrn=  0.000000 ICntrl=    2127 IOpCl=  0 I1Cent=           0 NGrid=           0
         NMat0=    1 NMatS0=      1 NMatT0=    0 NMatD0=    1 NMtDS0=    0 NMtDT0=    0
 Petite list used in FoFCou.
 Leave Link  703 at Tue Sep 17 13:12:25 2024, MaxMem=   268435456 cpu:         3.4
 (Enter /g100_work/pMI24_ChiCa/g09d1/g09d01/d01/build-node-6-2-59348/src/main/l716.exe)
 Dipole        = 7.35516515D-02-2.40459065D+00 0.00000000D+00
 ***** Axes restored to original set *****
 -------------------------------------------------------------------
 Center     Atomic                   Forces (Hartrees/Bohr)
 Number     Number              X              Y              Z
 -------------------------------------------------------------------
      1        6          -0.000137112    0.000000000   -0.000030689
      2        8          -0.000045621    0.000000000    0.000029604
      3        8           0.000111889   -0.000000000    0.000164670
      4        6           0.000108490    0.000000000    0.000012395
      5        1          -0.000047513    0.000000000   -0.000048048
      6        1           0.000004934    0.000036440   -0.000063966
      7        1           0.000004934   -0.000036440   -0.000063966
 -------------------------------------------------------------------
 Cartesian Forces:  Max     0.000164670 RMS     0.000065360
 Leave Link  716 at Tue Sep 17 13:12:25 2024, MaxMem=   268435456 cpu:         0.1
 (Enter /g100_work/pMI24_ChiCa/g09d1/g09d01/d01/build-node-6-2-59348/src/main/l103.exe)

 GradGradGradGradGradGradGradGradGradGradGradGradGradGradGradGradGradGrad
 Berny optimization.
 Using GEDIIS/GDIIS optimizer.
 FormGI is forming the generalized inverse of G from B-inverse, IUseBI=4.
 Internal  Forces:  Max     0.000146538 RMS     0.000052395
 Search for a local minimum.
 Step number   6 out of a maximum of   31
 All quantities printed in internal units (Hartrees-Bohrs-Radians)
 RMS Force = .52395D-04 SwitMx=.10000D-02 MixMth= 2
 Mixed Optimization -- En-DIIS/RFO-DIIS
 Swapping is turned off.
 Update second derivatives using D2CorX and points    1    2    3    4    5
                                                      6
 DE=  2.25D-06 DEPred=-2.93D-06 R=-7.69D-01
 Trust test=-7.69D-01 RLast= 5.60D-03 DXMaxT set to 2.52D-01
 ITU= -1  1  1  1  1  0
     Eigenvalues ---    0.00766   0.00766   0.07092   0.07162   0.15530
     Eigenvalues ---    0.16000   0.16952   0.22172   0.24317   0.33392
     Eigenvalues ---    0.36943   0.37230   0.38593   0.51258   0.76090
 En-DIIS/RFO-DIIS IScMMF=        0 using points:     6    5    4
 RFO step:  Lambda=-1.12584848D-07.
 NNeg= 0 NP= 3 Switch=  2.50D-03 Rises=F DC=  2.68D-05 SmlDif=  1.00D-05
 RMS Error=  0.1055450683D-03 NUsed= 3 EDIIS=F
 DidBck=F Rises=F RFO-DIIS coefs:    0.90116    0.13528   -0.03643
 Iteration  1 RMS(Cart)=  0.00037118 RMS(Int)=  0.00000014
 Iteration  2 RMS(Cart)=  0.00000008 RMS(Int)=  0.00000010
 ITry= 1 IFail=0 DXMaxC= 8.16D-04 DCOld= 1.00D+10 DXMaxT= 2.52D-01 DXLimC= 3.00D+00 Rises=F
 ClnCor:  largest displacement from symmetrization is 2.36D-11 for atom     5.
 Variable       Old X    -DE/DX   Delta X   Delta X   Delta X     New X
                                 (Linear)    (Quad)   (Total)
    R1        2.40544  -0.00001   0.00014  -0.00009   0.00005   2.40548
    R2        2.40777   0.00005  -0.00011   0.00014   0.00003   2.40780
    R3        2.88461   0.00002   0.00013  -0.00013  -0.00000   2.88461
    R4        2.06373   0.00004   0.00002   0.00006   0.00008   2.06381
    R5        2.06986   0.00005  -0.00002   0.00012   0.00011   2.06996
    R6        2.06986   0.00005  -0.00002   0.00012   0.00011   2.06996
    A1        2.16961  -0.00013  -0.00021  -0.00022  -0.00042   2.16918
    A2        2.06816  -0.00002   0.00001  -0.00010  -0.00009   2.06807
    A3        2.04542   0.00015   0.00020   0.00032   0.00051   2.04593
    A4        1.95345  -0.00003   0.00016  -0.00047  -0.00030   1.95315
    A5        1.91297   0.00006  -0.00005   0.00039   0.00035   1.91331
    A6        1.91297   0.00006  -0.00005   0.00039   0.00035   1.91331
    A7        1.90591  -0.00003  -0.00001  -0.00020  -0.00020   1.90570
    A8        1.90591  -0.00003  -0.00001  -0.00020  -0.00020   1.90570
    A9        1.87077  -0.00003  -0.00006   0.00009   0.00003   1.87080
    D1        0.00000   0.00000   0.00000   0.00000   0.00000   0.00000
    D2        2.11729  -0.00002   0.00006  -0.00029  -0.00022   2.11706
    D3       -2.11729   0.00002  -0.00006   0.00029   0.00022  -2.11706
    D4        3.14159  -0.00000   0.00000  -0.00000   0.00000   3.14159
    D5       -1.02431  -0.00002   0.00006  -0.00029  -0.00022  -1.02453
    D6        1.02431   0.00002  -0.00006   0.00029   0.00022   1.02453
         Item               Value     Threshold  Converged?
 Maximum Force            0.000147     0.000450     YES
 RMS     Force            0.000052     0.000300     YES
 Maximum Displacement     0.000816     0.001800     YES
 RMS     Displacement     0.000371     0.001200     YES
 Predicted change in Energy=-1.163469D-07
 Optimization completed.
    -- Stationary point found.
                           ----------------------------
                           !   Optimized Parameters   !
                           ! (Angstroms and Degrees)  !
 --------------------------                            --------------------------
 ! Name  Definition              Value          Derivative Info.                !
 --------------------------------------------------------------------------------
 ! R1    R(1,2)                  1.2729         -DE/DX =    0.0                 !
 ! R2    R(1,3)                  1.2741         -DE/DX =    0.0                 !
 ! R3    R(1,4)                  1.5265         -DE/DX =    0.0                 !
 ! R4    R(4,5)                  1.0921         -DE/DX =    0.0                 !
 ! R5    R(4,6)                  1.0953         -DE/DX =    0.0001              !
 ! R6    R(4,7)                  1.0953         -DE/DX =    0.0001              !
 ! A1    A(2,1,3)              124.3094         -DE/DX =   -0.0001              !
 ! A2    A(2,1,4)              118.4967         -DE/DX =    0.0                 !
 ! A3    A(3,1,4)              117.1939         -DE/DX =    0.0001              !
 ! A4    A(1,4,5)              111.9247         -DE/DX =    0.0                 !
 ! A5    A(1,4,6)              109.6049         -DE/DX =    0.0001              !
 ! A6    A(1,4,7)              109.6049         -DE/DX =    0.0001              !
 ! A7    A(5,4,6)              109.2004         -DE/DX =    0.0                 !
 ! A8    A(5,4,7)              109.2004         -DE/DX =    0.0                 !
 ! A9    A(6,4,7)              107.187          -DE/DX =    0.0                 !
 ! D1    D(2,1,4,5)              0.0            -DE/DX =    0.0                 !
 ! D2    D(2,1,4,6)            121.3115         -DE/DX =    0.0                 !
 ! D3    D(2,1,4,7)           -121.3115         -DE/DX =    0.0                 !
 ! D4    D(3,1,4,5)            180.0            -DE/DX =    0.0                 !
 ! D5    D(3,1,4,6)            -58.6885         -DE/DX =    0.0                 !
 ! D6    D(3,1,4,7)             58.6885         -DE/DX =    0.0                 !
 --------------------------------------------------------------------------------
 GradGradGradGradGradGradGradGradGradGradGradGradGradGradGradGradGradGrad

 Largest change from initial coordinates is atom    5       0.603 Angstoms.
 Leave Link  103 at Tue Sep 17 13:12:25 2024, MaxMem=   268435456 cpu:         1.0
 (Enter /g100_work/pMI24_ChiCa/g09d1/g09d01/d01/build-node-6-2-59348/src/main/l202.exe)
                          Input orientation:                          
 ---------------------------------------------------------------------
 Center     Atomic      Atomic             Coordinates (Angstroms)
 Number     Number       Type             X           Y           Z
 ---------------------------------------------------------------------
      1          6           0        0.018112   -0.000000    0.053937
      2          8           0       -0.022362   -0.000000    1.326197
      3          8           0        1.092860   -0.000000   -0.630417
      4          6           0       -1.299582    0.000000   -0.716643
      5          1           0       -2.163004    0.000000   -0.047956
      6          1           0       -1.346136    0.881544   -1.365059
      7          1           0       -1.346136   -0.881544   -1.365059
 ---------------------------------------------------------------------
                    Distance matrix (angstroms):
                    1          2          3          4          5
     1  C    0.000000
     2  O    1.272904   0.000000
     3  O    1.274136   2.252124   0.000000
     4  C    1.526471   2.409250   2.393995   0.000000
     5  H    2.183495   2.543746   3.307554   1.092081   0.000000
     6  H    2.156813   3.126076   2.695463   1.095321   1.783018
     7  H    2.156813   3.126076   2.695463   1.095321   1.783018
                    6          7
     6  H    0.000000
     7  H    1.763087   0.000000
 Stoichiometry    C2H3O2(1-)
 Framework group  CS[SG(C2HO2),X(H2)]
 Deg. of freedom    10
 Full point group                 CS      NOp   2
 RotChk:  IX=0 Diff= 3.88D-16
 Largest Abelian subgroup         CS      NOp   2
 Largest concise Abelian subgroup CS      NOp   2
                         Standard orientation:                         
 ---------------------------------------------------------------------
 Center     Atomic      Atomic             Coordinates (Angstroms)
 Number     Number       Type             X           Y           Z
 ---------------------------------------------------------------------
      1          6           0        0.000000    0.173134   -0.000000
      2          8           0        1.098133    0.816864   -0.000000
      3          8           0       -1.151814    0.717879    0.000000
      4          6           0        0.050138   -1.352513    0.000000
      5          1           0        1.076082   -1.726787    0.000000
      6          1           0       -0.473731   -1.737442    0.881544
      7          1           0       -0.473731   -1.737442   -0.881544
 ---------------------------------------------------------------------
 Rotational constants (GHZ):     11.5587917      9.8256426      5.4917947
 Leave Link  202 at Tue Sep 17 13:12:25 2024, MaxMem=   268435456 cpu:         0.1
 (Enter /g100_work/pMI24_ChiCa/g09d1/g09d01/d01/build-node-6-2-59348/src/main/l601.exe)
 Copying SCF densities to generalized density rwf, IOpCl= 0 IROHF=0.

 **********************************************************************

            Population analysis using the SCF density.

 **********************************************************************

 Orbital symmetries:
       Occupied  (A') (A') (A') (A') (A') (A') (A') (A') (A') (A')
                 (A") (A') (A") (A") (A') (A')
       Virtual   (A') (A") (A') (A') (A") (A') (A') (A") (A') (A')
                 (A") (A') (A') (A") (A') (A') (A') (A") (A') (A')
                 (A') (A') (A') (A') (A") (A') (A") (A') (A') (A")
                 (A') (A') (A') (A') (A") (A") (A') (A') (A') (A')
                 (A") (A") (A') (A') (A") (A') (A') (A") (A') (A')
                 (A") (A') (A") (A') (A") (A') (A") (A') (A') (A")
                 (A") (A') (A') (A') (A") (A') (A') (A') (A') (A")
                 (A') (A') (A') (A') (A')
 The electronic state is 1-A'.
 Alpha  occ. eigenvalues --  -19.10900 -19.10739 -10.28612 -10.17081  -1.03058
 Alpha  occ. eigenvalues --   -0.94108  -0.71263  -0.50586  -0.43205  -0.43192
 Alpha  occ. eigenvalues --   -0.43076  -0.37906  -0.35578  -0.26756  -0.25720
 Alpha  occ. eigenvalues --   -0.24555
 Alpha virt. eigenvalues --    0.01783   0.03733   0.04880   0.05838   0.06804
 Alpha virt. eigenvalues --    0.08603   0.08688   0.09750   0.14031   0.16726
 Alpha virt. eigenvalues --    0.18082   0.21453   0.22782   0.24593   0.25588
 Alpha virt. eigenvalues --    0.26450   0.28242   0.28634   0.31938   0.32289
 Alpha virt. eigenvalues --    0.34182   0.44534   0.49273   0.66333   0.66506
 Alpha virt. eigenvalues --    0.69808   0.72337   0.79960   0.81207   0.93188
 Alpha virt. eigenvalues --    0.98929   1.06690   1.09912   1.14548   1.18103
 Alpha virt. eigenvalues --    1.26809   1.27751   1.31232   1.32041   1.33839
 Alpha virt. eigenvalues --    1.35554   1.46436   1.52644   1.59187   1.70969
 Alpha virt. eigenvalues --    1.77258   1.80490   1.84004   1.85585   1.90870
 Alpha virt. eigenvalues --    1.91861   1.99434   2.04925   2.10277   2.12052
 Alpha virt. eigenvalues --    2.16729   2.27544   2.32392   2.38868   2.53140
 Alpha virt. eigenvalues --    2.66883   2.69187   2.73349   2.87978   2.88115
 Alpha virt. eigenvalues --    2.98206   3.09032   3.13208   3.28499   3.43864
 Alpha virt. eigenvalues --    3.47794   4.12244   4.33455   4.34550   4.61655
          Condensed to atoms (all electrons):
               1          2          3          4          5          6
     1  C    4.618664   0.353551   0.361044   0.211572  -0.036259  -0.025390
     2  O    0.353551   8.741250  -0.166231  -0.147444  -0.002410   0.001871
     3  O    0.361044  -0.166231   8.763422  -0.182279   0.006578  -0.003440
     4  C    0.211572  -0.147444  -0.182279   5.461785   0.390670   0.385891
     5  H   -0.036259  -0.002410   0.006578   0.390670   0.531435  -0.026579
     6  H   -0.025390   0.001871  -0.003440   0.385891  -0.026579   0.511603
     7  H   -0.025390   0.001871  -0.003440   0.385891  -0.026579  -0.023377
               7
     1  C   -0.025390
     2  O    0.001871
     3  O   -0.003440
     4  C    0.385891
     5  H   -0.026579
     6  H   -0.023377
     7  H    0.511603
 Mulliken charges:
               1
     1  C    0.542209
     2  O   -0.782458
     3  O   -0.775655
     4  C   -0.506086
     5  H    0.163144
     6  H    0.179423
     7  H    0.179423
 Sum of Mulliken charges =  -1.00000
 Mulliken charges with hydrogens summed into heavy atoms:
               1
     1  C    0.542209
     2  O   -0.782458
     3  O   -0.775655
     4  C    0.015904
 Electronic spatial extent (au):  <R**2>=            258.3388
 Charge=             -1.0000 electrons
 Dipole moment (field-independent basis, Debye):
    X=              0.1869    Y=             -6.1119    Z=              0.0000  Tot=              6.1147
 Quadrupole moment (field-independent basis, Debye-Ang):
   XX=            -36.6732   YY=            -30.7433   ZZ=            -25.1402
   XY=             -0.1374   XZ=             -0.0000   YZ=             -0.0000
 Traceless Quadrupole moment (field-independent basis, Debye-Ang):
   XX=             -5.8210   YY=              0.1089   ZZ=              5.7120
   XY=             -0.1374   XZ=             -0.0000   YZ=             -0.0000
 Octapole moment (field-independent basis, Debye-Ang**2):
  XXX=              1.5851  YYY=             -6.7869  ZZZ=              0.0000  XYY=             -0.6170
  XXY=             -8.7744  XXZ=              0.0000  XZZ=             -0.6350  YZZ=             -1.1046
  YYZ=              0.0000  XYZ=              0.0000
 Hexadecapole moment (field-independent basis, Debye-Ang**3):
 XXXX=           -156.4277 YYYY=           -189.5613 ZZZZ=            -33.2506 XXXY=             -1.0151
 XXXZ=             -0.0000 YYYX=              0.1059 YYYZ=             -0.0000 ZZZX=             -0.0000
 ZZZY=             -0.0000 XXYY=            -58.3906 XXZZ=            -29.6911 YYZZ=            -34.5787
 XXYZ=             -0.0000 YYXZ=             -0.0000 ZZXY=              1.3229
 N-N= 1.113578587318D+02 E-N=-7.667715317468D+02  KE= 2.264904764306D+02
 Symmetry A'   KE= 2.166743004850D+02
 Symmetry A"   KE= 9.816175945554D+00
 No NMR shielding tensors so no spin-rotation constants.
 Leave Link  601 at Tue Sep 17 13:12:25 2024, MaxMem=   268435456 cpu:         1.5
 (Enter /g100_work/pMI24_ChiCa/g09d1/g09d01/d01/build-node-6-2-59348/src/main/l9999.exe)
 B after Tr=    -0.011353    0.000000    0.013759
         Rot=    1.000000   -0.000000    0.000330   -0.000000 Ang=   0.04 deg.
 Final structure in terms of initial Z-matrix:
 C
 O,1,oc2
 O,1,oc3,2,oco3
 C,1,cc4,3,cco4,2,dih4,0
 H,4,hc5,1,hcc5,3,dih5,0
 H,4,hc6,1,hcc6,5,dih6,0
 H,4,hc7,1,hcc7,5,dih7,0
      Variables:
 oc2=1.27290376
 oc3=1.2741363
 oco3=124.30941827
 cc4=1.52647054
 cco4=117.19386002
 dih4=180.
 hc5=1.09208083
 hcc5=111.92471792
 dih5=180.
 hc6=1.09532122
 hcc6=109.60485553
 dih6=121.31153491
 hc7=1.09532122
 hcc7=109.60485553
 dih7=-121.31153491
 1\1\GINC-R500N002\FOpt\RB3LYP\6-31+G(d,p)\C2H3O2(1-)\ECABIATI\17-Sep-2
 024\0\\#p B3LYP/6-31+g(d,p) opt scrf=(smd,solvent=water)\\ch3coo- sol\
 \-1,1\C,0.0181375785,0.,0.0538522803\O,-0.0223368261,0.,1.3261123952\O
 ,1.0928851607,0.,-0.6305021166\C,-1.2995567442,0.,-0.7167280008\H,-2.1
 629786948,0.,-0.0480404265\H,-1.3461110318,0.8815435107,-1.3651432268\
 H,-1.3461110318,-0.8815435107,-1.3651432268\\Version=EM64L-G09RevD.01\
 State=1-A'\HF=-228.6580628\RMSD=6.732e-09\RMSF=6.536e-05\Dipole=-2.073
 918,0.,-1.2191514\Quadrupole=-1.0788135,4.2467489,-3.1679354,0.,1.9438
 645,0.\PG=CS [SG(C2H1O2),X(H2)]\\@


 RESEARCH IS WHAT I AM DOING WHEN I DON'T KNOW WHAT I AM DOING.
     -- WERNER VON BRAUN
 Job cpu time:       0 days  0 hours  3 minutes 15.9 seconds.
 File lengths (MBytes):  RWF=     14 Int=      0 D2E=      0 Chk=      3 Scr=      1
 Normal termination of Gaussian 09 at Tue Sep 17 13:12:26 2024.
