 ethyne                                                  
GAUSSIAN              7 MOL ORBITALS     70 PRIMITIVES        4 NUCLEI
  C    1    (CENTRE  1)  -0.00000000  0.00000000  1.13906116  CHARGE =  6.0
  C    2    (CENTRE  2)  -0.00000000  0.00000000 -1.13906116  CHARGE =  6.0
  H    3    (CENTRE  3)  -0.00000000  0.00000000  3.15395639  CHARGE =  1.0
  H    4    (CENTRE  4)   0.00000000  0.00000000 -3.15395639  CHARGE =  1.0
CENTRE ASSIGNMENTS    1  1  1  1  1  1  1  1  1  1  1  1  1  1  1  1  1  1  1  1
CENTRE ASSIGNMENTS    1  1  1  1  1  1  1  1  2  2  2  2  2  2  2  2  2  2  2  2
CENTRE ASSIGNMENTS    2  2  2  2  2  2  2  2  2  2  2  2  2  2  2  2  3  3  3  3
CENTRE ASSIGNMENTS    3  3  3  4  4  4  4  4  4  4
TYPE ASSIGNMENTS      1  1  1  1  1  1  1  1  1  2  2  2  3  3  3  4  4  4  1  2
TYPE ASSIGNMENTS      3  4  5  6  7  8  9 10  1  1  1  1  1  1  1  1  1  2  2  2
TYPE ASSIGNMENTS      3  3  3  4  4  4  1  2  3  4  5  6  7  8  9 10  1  1  1  1
TYPE ASSIGNMENTS      2  3  4  1  1  1  1  2  3  4
EXPONENTS  0.3047525D+04 0.4573695D+03 0.1039487D+03 0.2921016D+02 0.9286663D+01
EXPONENTS  0.3163927D+01 0.7868272D+01 0.1881289D+01 0.5442493D+00 0.7868272D+01
EXPONENTS  0.1881289D+01 0.5442493D+00 0.7868272D+01 0.1881289D+01 0.5442493D+00
EXPONENTS  0.7868272D+01 0.1881289D+01 0.5442493D+00 0.1687145D+00 0.1687145D+00
EXPONENTS  0.1687145D+00 0.1687145D+00 0.8000000D+00 0.8000000D+00 0.8000000D+00
EXPONENTS  0.8000000D+00 0.8000000D+00 0.8000000D+00 0.3047525D+04 0.4573695D+03
EXPONENTS  0.1039487D+03 0.2921016D+02 0.9286663D+01 0.3163927D+01 0.7868272D+01
EXPONENTS  0.1881289D+01 0.5442493D+00 0.7868272D+01 0.1881289D+01 0.5442493D+00
EXPONENTS  0.7868272D+01 0.1881289D+01 0.5442493D+00 0.7868272D+01 0.1881289D+01
EXPONENTS  0.5442493D+00 0.1687145D+00 0.1687145D+00 0.1687145D+00 0.1687145D+00
EXPONENTS  0.8000000D+00 0.8000000D+00 0.8000000D+00 0.8000000D+00 0.8000000D+00
EXPONENTS  0.8000000D+00 0.1873114D+02 0.2825394D+01 0.6401217D+00 0.1612778D+00
EXPONENTS  0.1100000D+01 0.1100000D+01 0.1100000D+01 0.1873114D+02 0.2825394D+01
EXPONENTS  0.6401217D+00 0.1612778D+00 0.1100000D+01 0.1100000D+01 0.1100000D+01
MO    1     MO 0.0        OCC NO =    2.0000000  ORB. ENERGY =  -10.192184
  0.37623512D+00  0.69408034D+00  0.11204609D+01  0.14585071D+01  0.12445468D+01
  0.42971210D+00 -0.13449894D-01 -0.61990437D-02  0.17382765D-01  0.00000000D+00
  0.00000000D+00  0.00000000D+00  0.00000000D+00  0.00000000D+00  0.00000000D+00
  0.93387042D-03  0.71603260D-03  0.35735045D-03 -0.70268161D-03  0.00000000D+00
  0.00000000D+00 -0.51147848D-04 -0.82589722D-02 -0.82589722D-02 -0.63034181D-02
  0.00000000D+00  0.00000000D+00  0.00000000D+00  0.37623512D+00  0.69408034D+00
  0.11204609D+01  0.14585071D+01  0.12445468D+01  0.42971210D+00 -0.13449894D-01
 -0.61990437D-02  0.17382765D-01  0.00000000D+00  0.00000000D+00  0.00000000D+00
  0.00000000D+00  0.00000000D+00  0.00000000D+00 -0.93387042D-03 -0.71603260D-03
 -0.35735045D-03 -0.70268161D-03  0.00000000D+00  0.00000000D+00  0.51147848D-04
 -0.82589722D-02 -0.82589722D-02 -0.63034181D-02  0.00000000D+00  0.00000000D+00
  0.00000000D+00 -0.22510715D-03 -0.38182434D-03 -0.43469351D-03  0.17828774D-03
  0.00000000D+00  0.00000000D+00  0.97919363D-03 -0.22510715D-03 -0.38182434D-03
 -0.43469351D-03  0.17828774D-03  0.00000000D+00  0.00000000D+00 -0.97919363D-03
MO    2     MO 0.0        OCC NO =    2.0000000  ORB. ENERGY =  -10.189783
  0.37669248D+00  0.69492407D+00  0.11218229D+01  0.14602801D+01  0.12460597D+01
  0.43023446D+00 -0.14219529D-01 -0.65537678D-02  0.18377449D-01  0.00000000D+00
  0.00000000D+00  0.00000000D+00  0.00000000D+00  0.00000000D+00  0.00000000D+00
 -0.99347943D-03 -0.76173702D-03 -0.38016016D-03 -0.30568834D-02  0.00000000D+00
  0.00000000D+00  0.10286695D-02 -0.78190048D-02 -0.78190048D-02 -0.56018361D-02
  0.00000000D+00  0.00000000D+00  0.00000000D+00 -0.37669248D+00 -0.69492407D+00
 -0.11218229D+01 -0.14602801D+01 -0.12460597D+01 -0.43023446D+00  0.14219529D-01
  0.65537678D-02 -0.18377449D-01  0.00000000D+00  0.00000000D+00  0.00000000D+00
  0.00000000D+00  0.00000000D+00  0.00000000D+00 -0.99347943D-03 -0.76173702D-03
 -0.38016016D-03  0.30568834D-02  0.00000000D+00  0.00000000D+00  0.10286695D-02
  0.78190048D-02  0.78190048D-02  0.56018361D-02  0.00000000D+00  0.00000000D+00
  0.00000000D+00 -0.25227760D-03 -0.42791056D-03 -0.48716105D-03 -0.88951867D-04
  0.00000000D+00  0.00000000D+00  0.98615051D-03  0.25227760D-03  0.42791056D-03
  0.48716105D-03  0.88951867D-04  0.00000000D+00  0.00000000D+00  0.98615051D-03
MO    3     MO 0.0        OCC NO =    2.0000000  ORB. ENERGY =   -0.742656
 -0.93794121D-01 -0.17303184D+00 -0.27932704D+00 -0.36360081D+00 -0.31026123D+00
 -0.10712575D+00 -0.13239566D+00 -0.61021041D-01  0.17110937D+00  0.00000000D+00
  0.00000000D+00  0.00000000D+00  0.00000000D+00  0.00000000D+00  0.00000000D+00
 -0.19078439D+00 -0.14628137D+00 -0.73004657D-01  0.47003839D-01  0.00000000D+00
  0.00000000D+00  0.31527008D-02 -0.18479334D-01 -0.18479334D-01  0.10645234D-01
  0.00000000D+00  0.00000000D+00  0.00000000D+00 -0.93794121D-01 -0.17303184D+00
 -0.27932704D+00 -0.36360081D+00 -0.31026123D+00 -0.10712575D+00 -0.13239566D+00
 -0.61021041D-01  0.17110937D+00  0.00000000D+00  0.00000000D+00  0.00000000D+00
  0.00000000D+00  0.00000000D+00  0.00000000D+00  0.19078439D+00  0.14628137D+00
  0.73004657D-01  0.47003839D-01  0.00000000D+00  0.00000000D+00 -0.31527008D-02
 -0.18479334D-01 -0.18479334D-01  0.10645234D-01  0.00000000D+00  0.00000000D+00
  0.00000000D+00  0.16988909D-01  0.28816404D-01  0.32806458D-01 -0.34011030D-03
  0.00000000D+00  0.00000000D+00 -0.13436887D-01  0.16988909D-01  0.28816404D-01
  0.32806458D-01 -0.34011030D-03  0.00000000D+00  0.00000000D+00  0.13436887D-01
MO    4     MO 0.0        OCC NO =    2.0000000  ORB. ENERGY =   -0.564021
 -0.60849629D-01 -0.11225568D+00 -0.18121548D+00 -0.23588871D+00 -0.20128426D+00
 -0.69498620D-01 -0.90796349D-01 -0.41847954D-01  0.11734603D+00  0.00000000D+00
  0.00000000D+00  0.00000000D+00  0.00000000D+00  0.00000000D+00  0.00000000D+00
  0.26716875D+00  0.20484805D+00  0.10223353D+00  0.37253909D-01  0.00000000D+00
  0.00000000D+00  0.10523057D-01 -0.11839155D-01 -0.11839155D-01  0.57680834D-02
  0.00000000D+00  0.00000000D+00  0.00000000D+00  0.60849629D-01  0.11225568D+00
  0.18121548D+00  0.23588871D+00  0.20128426D+00  0.69498620D-01  0.90796349D-01
  0.41847954D-01 -0.11734603D+00  0.00000000D+00  0.00000000D+00  0.00000000D+00
  0.00000000D+00  0.00000000D+00  0.00000000D+00  0.26716875D+00  0.20484805D+00
  0.10223353D+00 -0.37253909D-01  0.00000000D+00  0.00000000D+00  0.10523057D-01
  0.11839155D-01  0.11839155D-01 -0.57680834D-02  0.00000000D+00  0.00000000D+00
  0.00000000D+00  0.47295073D-01  0.80221395D-01  0.91329222D-01  0.22598634D-01
  0.00000000D+00  0.00000000D+00 -0.20254937D-01 -0.47295073D-01 -0.80221395D-01
 -0.91329222D-01 -0.22598634D-01  0.00000000D+00  0.00000000D+00 -0.20254937D-01
MO    5     MO 0.0        OCC NO =    2.0000000  ORB. ENERGY =   -0.490149
  0.19643125D-02  0.36237731D-02  0.58498933D-02  0.76148229D-02  0.64977422D-02
  0.22435142D-02 -0.17821243D-02 -0.82137946D-03  0.23032338D-02  0.00000000D+00
  0.00000000D+00  0.00000000D+00  0.00000000D+00  0.00000000D+00  0.00000000D+00
  0.50351562D+00  0.38606384D+00  0.19267291D+00  0.41601369D-03  0.00000000D+00
  0.00000000D+00  0.88171776D-02  0.15172653D-02  0.15172653D-02  0.73393773D-02
  0.00000000D+00  0.00000000D+00  0.00000000D+00  0.19643125D-02  0.36237731D-02
  0.58498933D-02  0.76148229D-02  0.64977422D-02  0.22435142D-02 -0.17821243D-02
 -0.82137946D-03  0.23032338D-02  0.00000000D+00  0.00000000D+00  0.00000000D+00
  0.00000000D+00  0.00000000D+00  0.00000000D+00 -0.50351562D+00 -0.38606384D+00
 -0.19267291D+00  0.41601369D-03  0.00000000D+00  0.00000000D+00 -0.88171776D-02
  0.15172653D-02  0.15172653D-02  0.73393773D-02  0.00000000D+00  0.00000000D+00
  0.00000000D+00  0.48412933D-01  0.82117498D-01  0.93487869D-01  0.35772610D-01
  0.00000000D+00  0.00000000D+00 -0.13912790D-01  0.48412933D-01  0.82117498D-01
  0.93487869D-01  0.35772610D-01  0.00000000D+00  0.00000000D+00  0.13912790D-01
MO    6     MO 0.0        OCC NO =    2.0000000  ORB. ENERGY =   -0.282320
  0.00000000D+00  0.00000000D+00  0.00000000D+00  0.00000000D+00  0.00000000D+00
  0.00000000D+00 -0.00000000D+00 -0.00000000D+00  0.00000000D+00  0.54181435D+00
  0.41542887D+00  0.20732812D+00  0.00000000D+00  0.00000000D+00  0.00000000D+00
  0.00000000D+00  0.00000000D+00  0.00000000D+00  0.00000000D+00  0.39007734D-01
  0.00000000D+00  0.00000000D+00  0.00000000D+00  0.00000000D+00  0.00000000D+00
  0.00000000D+00 -0.34154599D-01  0.00000000D+00  0.00000000D+00  0.00000000D+00
  0.00000000D+00  0.00000000D+00  0.00000000D+00  0.00000000D+00 -0.00000000D+00
 -0.00000000D+00  0.00000000D+00  0.54181435D+00  0.41542887D+00  0.20732812D+00
  0.00000000D+00  0.00000000D+00  0.00000000D+00  0.00000000D+00  0.00000000D+00
  0.00000000D+00  0.00000000D+00  0.39007734D-01  0.00000000D+00  0.00000000D+00
  0.00000000D+00  0.00000000D+00  0.00000000D+00  0.00000000D+00  0.34154599D-01
  0.00000000D+00  0.00000000D+00  0.00000000D+00  0.00000000D+00  0.00000000D+00
  0.18202087D-01  0.00000000D+00  0.00000000D+00  0.00000000D+00  0.00000000D+00
  0.00000000D+00  0.00000000D+00  0.18202087D-01  0.00000000D+00  0.00000000D+00
MO    7     MO 0.0        OCC NO =    2.0000000  ORB. ENERGY =   -0.282320
  0.00000000D+00  0.00000000D+00  0.00000000D+00  0.00000000D+00  0.00000000D+00
  0.00000000D+00 -0.00000000D+00 -0.00000000D+00  0.00000000D+00  0.00000000D+00
  0.00000000D+00  0.00000000D+00  0.54181435D+00  0.41542887D+00  0.20732812D+00
  0.00000000D+00  0.00000000D+00  0.00000000D+00  0.00000000D+00  0.00000000D+00
  0.39007734D-01  0.00000000D+00  0.00000000D+00  0.00000000D+00  0.00000000D+00
  0.00000000D+00  0.00000000D+00 -0.34154599D-01  0.00000000D+00  0.00000000D+00
  0.00000000D+00  0.00000000D+00  0.00000000D+00  0.00000000D+00 -0.00000000D+00
 -0.00000000D+00  0.00000000D+00  0.00000000D+00  0.00000000D+00  0.00000000D+00
  0.54181435D+00  0.41542887D+00  0.20732812D+00  0.00000000D+00  0.00000000D+00
  0.00000000D+00  0.00000000D+00  0.00000000D+00  0.39007734D-01  0.00000000D+00
  0.00000000D+00  0.00000000D+00  0.00000000D+00  0.00000000D+00  0.00000000D+00
  0.34154599D-01  0.00000000D+00  0.00000000D+00  0.00000000D+00  0.00000000D+00
  0.00000000D+00  0.18202087D-01  0.00000000D+00  0.00000000D+00  0.00000000D+00
  0.00000000D+00  0.00000000D+00  0.00000000D+00  0.18202087D-01  0.00000000D+00
END DATA
 THE  HF ENERGY =    -77.329566398415 THE VIRIAL(-V/T)=   2.01022629
