 Entering Gaussian System, Link 0=/programs/64bit/g09/g09-gfortran/bin/g09
 Input=c3h8_opt.com
 Output=c3h8_opt.log
 Initial command:
 /programs/64bit/g09/g09-gfortran/bin/l1.exe /home/ospite/QM/c3h8/Gau-6882.inp -scrdir=/home/ospite/QM/c3h8/
 Entering Link 1 = /programs/64bit/g09/g09-gfortran/bin/l1.exe PID=      6883.
  
 Copyright (c) 1988,1990,1992,1993,1995,1998,2003,2009, Gaussian, Inc.
                  All Rights Reserved.
  
 This is part of the Gaussian(R) 09 program.  It is based on
 the Gaussian(R) 03 system (copyright 2003, Gaussian, Inc.),
 the Gaussian(R) 98 system (copyright 1998, Gaussian, Inc.),
 the Gaussian(R) 94 system (copyright 1995, Gaussian, Inc.),
 the Gaussian 92(TM) system (copyright 1992, Gaussian, Inc.),
 the Gaussian 90(TM) system (copyright 1990, Gaussian, Inc.),
 the Gaussian 88(TM) system (copyright 1988, Gaussian, Inc.),
 the Gaussian 86(TM) system (copyright 1986, Carnegie Mellon
 University), and the Gaussian 82(TM) system (copyright 1983,
 Carnegie Mellon University). Gaussian is a federally registered
 trademark of Gaussian, Inc.
  
 This software contains proprietary and confidential information,
 including trade secrets, belonging to Gaussian, Inc.
  
 This software is provided under written license and may be
 used, copied, transmitted, or stored only in accord with that
 written license.
  
 The following legend is applicable only to US Government
 contracts under FAR:
  
                    RESTRICTED RIGHTS LEGEND
  
 Use, reproduction and disclosure by the US Government is
 subject to restrictions as set forth in subparagraphs (a)
 and (c) of the Commercial Computer Software - Restricted
 Rights clause in FAR 52.227-19.
  
 Gaussian, Inc.
 340 Quinnipiac St., Bldg. 40, Wallingford CT 06492
  
  
 ---------------------------------------------------------------
 Warning -- This program may not be used in any manner that
 competes with the business of Gaussian, Inc. or will provide
 assistance to any competitor of Gaussian, Inc.  The licensee
 of this program is prohibited from giving any competitor of
 Gaussian, Inc. access to this program.  By using this program,
 the user acknowledges that Gaussian, Inc. is engaged in the
 business of creating and licensing software in the field of
 computational chemistry and represents and warrants to the
 licensee that it is not a competitor of Gaussian, Inc. and that
 it will not use this program in any manner prohibited above.
 ---------------------------------------------------------------
  

 Cite this work as:
 Gaussian 09, Revision A.02,
 M. J. Frisch, G. W. Trucks, H. B. Schlegel, G. E. Scuseria, 
 M. A. Robb, J. R. Cheeseman, G. Scalmani, V. Barone, B. Mennucci, 
 G. A. Petersson, H. Nakatsuji, M. Caricato, X. Li, H. P. Hratchian, 
 A. F. Izmaylov, J. Bloino, G. Zheng, J. L. Sonnenberg, M. Hada, 
 M. Ehara, K. Toyota, R. Fukuda, J. Hasegawa, M. Ishida, T. Nakajima, 
 Y. Honda, O. Kitao, H. Nakai, T. Vreven, J. A. Montgomery, Jr., 
 J. E. Peralta, F. Ogliaro, M. Bearpark, J. J. Heyd, E. Brothers, 
 K. N. Kudin, V. N. Staroverov, R. Kobayashi, J. Normand, 
 K. Raghavachari, A. Rendell, J. C. Burant, S. S. Iyengar, J. Tomasi, 
 M. Cossi, N. Rega, J. M. Millam, M. Klene, J. E. Knox, J. B. Cross, 
 V. Bakken, C. Adamo, J. Jaramillo, R. Gomperts, R. E. Stratmann, 
 O. Yazyev, A. J. Austin, R. Cammi, C. Pomelli, J. W. Ochterski, 
 R. L. Martin, K. Morokuma, V. G. Zakrzewski, G. A. Voth, 
 P. Salvador, J. J. Dannenberg, S. Dapprich, A. D. Daniels, 
 O. Farkas, J. B. Foresman, J. V. Ortiz, J. Cioslowski, 
 and D. J. Fox, Gaussian, Inc., Wallingford CT, 2009.
 
 ******************************************
 Gaussian 09:  EM64L-G09RevA.02 11-Jun-2009
                13-Aug-2024 
 ******************************************
 -----------------------------------------
 #p B3LYP/6-31+g(d,p) opt pop=full gfinput
 -----------------------------------------
 1/14=-1,18=20,19=15,26=3,38=1/1,3;
 2/9=110,12=2,17=6,18=5,40=1/2;
 3/5=1,6=6,7=111,11=2,16=1,24=10,25=1,30=1,71=1,74=-5/1,2,3;
 4//1;
 5/5=2,38=5/2;
 6/7=3,28=1/1;
 7//1,2,3,16;
 1/14=-1,18=20,19=15/3(2);
 2/9=110/2;
 99//99;
 2/9=110/2;
 3/5=1,6=6,7=111,11=2,16=1,25=1,30=1,71=1,74=-5/1,2,3;
 4/5=5,16=3/1;
 5/5=2,38=5/2;
 7//1,2,3,16;
 1/14=-1,18=20,19=15/3(-5);
 2/9=110/2;
 6/7=3,19=2,28=1/1;
 99/9=1/99;
 Leave Link    1 at Tue Aug 13 00:48:47 2024, MaxMem=          0 cpu:       0.1
 (Enter /programs/64bit/g09/g09-gfortran/bin/l101.exe)
 -------
 propane
 -------
 Symbolic Z-matrix:
 Charge =  0 Multiplicity = 1
 C1
 C2                   1    dCC
 C3                   1    dCC      2    aCC
 H4                   1    d1       2    a1       3    t1       0
 H5                   1    d1       2    a1       4    t2       0
 H6                   2    d2       1    a2       3    t3       0
 H7                   3    d2       1    a2       2    t3       0
 H8                   2    d3       1    a3       6    t4       0
 H9                   2    d3       1    a3       6    t5       0
 H10                  3    d3       1    a3       7    t4       0
 H11                  3    d3       1    a3       7    t5       0
       Variables:
  dCC                   1.526                    
  aCC                 112.4                      
  d1                    1.096                    
  a1                  109.56                     
  t1                  126.95                     
  t2                  106.1                      
  d2                    1.089                    
  a2                  111.8                      
  t3                  180.                       
  d3                    1.094                    
  a3                  110.6                      
  t4                  107.3                      
  t5                 -107.3                      
 
 NAtoms=     11 NQM=     11 NQMF=      0 NMic=      0 NMicF=      0 NTot=     11.
                    Isotopes and Nuclear Properties:
 (Nuclear quadrupole moments (NQMom) in fm**2, nuclear magnetic moments (NMagM)
  in nuclear magnetons)

  Atom         1           2           3           4           5           6           7           8           9          10
 IAtWgt=          12          12          12           1           1           1           1           1           1           1
 AtmWgt=  12.0000000  12.0000000  12.0000000   1.0078250   1.0078250   1.0078250   1.0078250   1.0078250   1.0078250   1.0078250
 NucSpn=           0           0           0           1           1           1           1           1           1           1
 AtZEff=   0.0000000   0.0000000   0.0000000   0.0000000   0.0000000   0.0000000   0.0000000   0.0000000   0.0000000   0.0000000
 NQMom=    0.0000000   0.0000000   0.0000000   0.0000000   0.0000000   0.0000000   0.0000000   0.0000000   0.0000000   0.0000000
 NMagM=    0.0000000   0.0000000   0.0000000   2.7928460   2.7928460   2.7928460   2.7928460   2.7928460   2.7928460   2.7928460

  Atom        11
 IAtWgt=           1
 AtmWgt=   1.0078250
 NucSpn=           1
 AtZEff=   0.0000000
 NQMom=    0.0000000
 NMagM=    2.7928460
 Leave Link  101 at Tue Aug 13 00:48:47 2024, MaxMem=   33554432 cpu:       0.2
 (Enter /programs/64bit/g09/g09-gfortran/bin/l103.exe)

 GradGradGradGradGradGradGradGradGradGradGradGradGradGradGradGradGradGrad
 Berny optimization.
 Initialization pass.
                           ----------------------------
                           !    Initial Parameters    !
                           ! (Angstroms and Degrees)  !
 --------------------------                            --------------------------
 ! Name  Definition              Value          Derivative Info.                !
 --------------------------------------------------------------------------------
 ! R1    R(1,2)                  1.526          estimate D2E/DX2                !
 ! R2    R(1,3)                  1.526          estimate D2E/DX2                !
 ! R3    R(1,4)                  1.096          estimate D2E/DX2                !
 ! R4    R(1,5)                  1.096          estimate D2E/DX2                !
 ! R5    R(2,6)                  1.089          estimate D2E/DX2                !
 ! R6    R(2,8)                  1.094          estimate D2E/DX2                !
 ! R7    R(2,9)                  1.094          estimate D2E/DX2                !
 ! R8    R(3,7)                  1.089          estimate D2E/DX2                !
 ! R9    R(3,10)                 1.094          estimate D2E/DX2                !
 ! R10   R(3,11)                 1.094          estimate D2E/DX2                !
 ! A1    A(2,1,3)              112.4            estimate D2E/DX2                !
 ! A2    A(2,1,4)              109.56           estimate D2E/DX2                !
 ! A3    A(2,1,5)              109.56           estimate D2E/DX2                !
 ! A4    A(3,1,4)              113.3352         estimate D2E/DX2                !
 ! A5    A(3,1,5)              113.3352         estimate D2E/DX2                !
 ! A6    A(4,1,5)               97.7091         estimate D2E/DX2                !
 ! A7    A(1,2,6)              111.8            estimate D2E/DX2                !
 ! A8    A(1,2,8)              110.6            estimate D2E/DX2                !
 ! A9    A(1,2,9)              110.6            estimate D2E/DX2                !
 ! A10   A(6,2,8)               97.342          estimate D2E/DX2                !
 ! A11   A(6,2,9)               97.342          estimate D2E/DX2                !
 ! A12   A(8,2,9)              126.6872         estimate D2E/DX2                !
 ! A13   A(1,3,7)              111.8            estimate D2E/DX2                !
 ! A14   A(1,3,10)             110.6            estimate D2E/DX2                !
 ! A15   A(1,3,11)             110.6            estimate D2E/DX2                !
 ! A16   A(7,3,10)              97.342          estimate D2E/DX2                !
 ! A17   A(7,3,11)              97.342          estimate D2E/DX2                !
 ! A18   A(10,3,11)            126.6872         estimate D2E/DX2                !
 ! D1    D(3,1,2,6)            180.0            estimate D2E/DX2                !
 ! D2    D(3,1,2,8)            -72.7            estimate D2E/DX2                !
 ! D3    D(3,1,2,9)             72.7            estimate D2E/DX2                !
 ! D4    D(4,1,2,6)            -53.05           estimate D2E/DX2                !
 ! D5    D(4,1,2,8)             54.25           estimate D2E/DX2                !
 ! D6    D(4,1,2,9)           -160.35           estimate D2E/DX2                !
 ! D7    D(5,1,2,6)             53.05           estimate D2E/DX2                !
 ! D8    D(5,1,2,8)            160.35           estimate D2E/DX2                !
 ! D9    D(5,1,2,9)            -54.25           estimate D2E/DX2                !
 ! D10   D(2,1,3,7)            180.0            estimate D2E/DX2                !
 ! D11   D(2,1,3,10)           -72.7            estimate D2E/DX2                !
 ! D12   D(2,1,3,11)            72.7            estimate D2E/DX2                !
 ! D13   D(4,1,3,7)             55.0973         estimate D2E/DX2                !
 ! D14   D(4,1,3,10)           162.3973         estimate D2E/DX2                !
 ! D15   D(4,1,3,11)           -52.2027         estimate D2E/DX2                !
 ! D16   D(5,1,3,7)            -55.0973         estimate D2E/DX2                !
 ! D17   D(5,1,3,10)            52.2027         estimate D2E/DX2                !
 ! D18   D(5,1,3,11)          -162.3973         estimate D2E/DX2                !
 --------------------------------------------------------------------------------
 Trust Radius=3.00D-01 FncErr=1.00D-07 GrdErr=1.00D-06
 Number of steps in this run=  56 maximum allowed number of steps= 100.
 GradGradGradGradGradGradGradGradGradGradGradGradGradGradGradGradGradGrad

 Leave Link  103 at Tue Aug 13 00:48:47 2024, MaxMem=   33554432 cpu:       0.0
 (Enter /programs/64bit/g09/g09-gfortran/bin/l202.exe)
                          Input orientation:                          
 ---------------------------------------------------------------------
 Center     Atomic      Atomic             Coordinates (Angstroms)
 Number     Number       Type             X           Y           Z
 ---------------------------------------------------------------------
      1          6           0        0.000000    0.000000    0.000000
      2          6           0        0.000000    0.000000    1.526000
      3          6           0        1.410857    0.000000   -0.581513
      4          1           0       -0.620805   -0.825334   -0.366934
      5          1           0       -0.620805    0.825334   -0.366934
      6          1           0       -1.011121    0.000000    1.930420
      7          1           0        1.399453    0.000000   -1.670454
      8          1           0        0.304526   -0.977722    1.910915
      9          1           0        0.304526    0.977722    1.910915
     10          1           0        1.882775    0.977722   -0.446644
     11          1           0        1.882775   -0.977722   -0.446644
 ---------------------------------------------------------------------
                    Distance matrix (angstroms):
                    1          2          3          4          5
     1  C    0.000000
     2  C    1.526000   0.000000
     3  C    1.526000   2.536165   0.000000
     4  H    1.096000   2.156334   2.203378   0.000000
     5  H    1.096000   2.156334   2.203378   1.650668   0.000000
     6  H    2.179194   1.089000   3.489382   2.472116   2.472116
     7  H    2.179194   3.489382   1.089000   2.542004   2.542004
     8  H    2.168011   1.094000   2.896913   2.463342   3.048909
     9  H    2.168011   1.094000   2.896913   3.048909   2.463342
    10  H    2.168011   2.896913   1.094000   3.086305   2.509480
    11  H    2.168011   2.896913   1.094000   2.509480   3.086305
                    6          7          8          9         10
     6  H    0.000000
     7  H    4.333262   0.000000
     8  H    1.639283   3.870530   0.000000
     9  H    1.639283   3.870530   1.955444   0.000000
    10  H    3.870530   1.639283   3.445680   2.837067   0.000000
    11  H    3.870530   1.639283   2.837067   3.445680   1.955444
                   11
    11  H    0.000000
 Stoichiometry    C3H8
 Framework group  CS[SG(C3H2),X(H6)]
 Deg. of freedom    16
 Full point group                 CS      NOp   2
 Largest Abelian subgroup         CS      NOp   2
 Largest concise Abelian subgroup CS      NOp   2
                         Standard orientation:                         
 ---------------------------------------------------------------------
 Center     Atomic      Atomic             Coordinates (Angstroms)
 Number     Number       Type             X           Y           Z
 ---------------------------------------------------------------------
      1          6           0       -0.000000    0.556876    0.000000
      2          6           0        1.263321   -0.299100    0.000000
      3          6           0       -1.272804   -0.284935    0.000000
      4          1           0        0.044456    1.276642    0.825334
      5          1           0        0.044456    1.276642   -0.825334
      6          1           0        2.165292    0.311120    0.000000
      7          1           0       -2.167902    0.335323    0.000000
      8          1           0        1.411161   -0.767117    0.977722
      9          1           0        1.411161   -0.767117   -0.977722
     10          1           0       -1.425862   -0.751270   -0.977722
     11          1           0       -1.425862   -0.751270    0.977722
 ---------------------------------------------------------------------
 Rotational constants (GHZ):     30.0560353      8.2313508      7.4585858
 Leave Link  202 at Tue Aug 13 00:48:47 2024, MaxMem=   33554432 cpu:       0.0
 (Enter /programs/64bit/g09/g09-gfortran/bin/l301.exe)
 Standard basis: 6-31+G(d,p) (6D, 7F)
 Ernie: Thresh=  0.10000D-02 Tol=  0.10000D-05 Strict=F.
 AO basis set in the form of general basis input (Overlap normalization):
      1 0
 S   6 1.00       0.000000000000
      0.3047524880D+04  0.1834737132D-02
      0.4573695180D+03  0.1403732281D-01
      0.1039486850D+03  0.6884262226D-01
      0.2921015530D+02  0.2321844432D+00
      0.9286662960D+01  0.4679413484D+00
      0.3163926960D+01  0.3623119853D+00
 SP   3 1.00       0.000000000000
      0.7868272350D+01 -0.1193324198D+00  0.6899906659D-01
      0.1881288540D+01 -0.1608541517D+00  0.3164239610D+00
      0.5442492580D+00  0.1143456438D+01  0.7443082909D+00
 SP   1 1.00       0.000000000000
      0.1687144782D+00  0.1000000000D+01  0.1000000000D+01
 SP   1 1.00       0.000000000000
      0.4380000000D-01  0.1000000000D+01  0.1000000000D+01
 D   1 1.00       0.000000000000
      0.8000000000D+00  0.1000000000D+01
 ****
      2 0
 S   6 1.00       0.000000000000
      0.3047524880D+04  0.1834737132D-02
      0.4573695180D+03  0.1403732281D-01
      0.1039486850D+03  0.6884262226D-01
      0.2921015530D+02  0.2321844432D+00
      0.9286662960D+01  0.4679413484D+00
      0.3163926960D+01  0.3623119853D+00
 SP   3 1.00       0.000000000000
      0.7868272350D+01 -0.1193324198D+00  0.6899906659D-01
      0.1881288540D+01 -0.1608541517D+00  0.3164239610D+00
      0.5442492580D+00  0.1143456438D+01  0.7443082909D+00
 SP   1 1.00       0.000000000000
      0.1687144782D+00  0.1000000000D+01  0.1000000000D+01
 SP   1 1.00       0.000000000000
      0.4380000000D-01  0.1000000000D+01  0.1000000000D+01
 D   1 1.00       0.000000000000
      0.8000000000D+00  0.1000000000D+01
 ****
      3 0
 S   6 1.00       0.000000000000
      0.3047524880D+04  0.1834737132D-02
      0.4573695180D+03  0.1403732281D-01
      0.1039486850D+03  0.6884262226D-01
      0.2921015530D+02  0.2321844432D+00
      0.9286662960D+01  0.4679413484D+00
      0.3163926960D+01  0.3623119853D+00
 SP   3 1.00       0.000000000000
      0.7868272350D+01 -0.1193324198D+00  0.6899906659D-01
      0.1881288540D+01 -0.1608541517D+00  0.3164239610D+00
      0.5442492580D+00  0.1143456438D+01  0.7443082909D+00
 SP   1 1.00       0.000000000000
      0.1687144782D+00  0.1000000000D+01  0.1000000000D+01
 SP   1 1.00       0.000000000000
      0.4380000000D-01  0.1000000000D+01  0.1000000000D+01
 D   1 1.00       0.000000000000
      0.8000000000D+00  0.1000000000D+01
 ****
      4 0
 S   3 1.00       0.000000000000
      0.1873113696D+02  0.3349460434D-01
      0.2825394365D+01  0.2347269535D+00
      0.6401216923D+00  0.8137573261D+00
 S   1 1.00       0.000000000000
      0.1612777588D+00  0.1000000000D+01
 P   1 1.00       0.000000000000
      0.1100000000D+01  0.1000000000D+01
 ****
      5 0
 S   3 1.00       0.000000000000
      0.1873113696D+02  0.3349460434D-01
      0.2825394365D+01  0.2347269535D+00
      0.6401216923D+00  0.8137573261D+00
 S   1 1.00       0.000000000000
      0.1612777588D+00  0.1000000000D+01
 P   1 1.00       0.000000000000
      0.1100000000D+01  0.1000000000D+01
 ****
      6 0
 S   3 1.00       0.000000000000
      0.1873113696D+02  0.3349460434D-01
      0.2825394365D+01  0.2347269535D+00
      0.6401216923D+00  0.8137573261D+00
 S   1 1.00       0.000000000000
      0.1612777588D+00  0.1000000000D+01
 P   1 1.00       0.000000000000
      0.1100000000D+01  0.1000000000D+01
 ****
      7 0
 S   3 1.00       0.000000000000
      0.1873113696D+02  0.3349460434D-01
      0.2825394365D+01  0.2347269535D+00
      0.6401216923D+00  0.8137573261D+00
 S   1 1.00       0.000000000000
      0.1612777588D+00  0.1000000000D+01
 P   1 1.00       0.000000000000
      0.1100000000D+01  0.1000000000D+01
 ****
      8 0
 S   3 1.00       0.000000000000
      0.1873113696D+02  0.3349460434D-01
      0.2825394365D+01  0.2347269535D+00
      0.6401216923D+00  0.8137573261D+00
 S   1 1.00       0.000000000000
      0.1612777588D+00  0.1000000000D+01
 P   1 1.00       0.000000000000
      0.1100000000D+01  0.1000000000D+01
 ****
      9 0
 S   3 1.00       0.000000000000
      0.1873113696D+02  0.3349460434D-01
      0.2825394365D+01  0.2347269535D+00
      0.6401216923D+00  0.8137573261D+00
 S   1 1.00       0.000000000000
      0.1612777588D+00  0.1000000000D+01
 P   1 1.00       0.000000000000
      0.1100000000D+01  0.1000000000D+01
 ****
     10 0
 S   3 1.00       0.000000000000
      0.1873113696D+02  0.3349460434D-01
      0.2825394365D+01  0.2347269535D+00
      0.6401216923D+00  0.8137573261D+00
 S   1 1.00       0.000000000000
      0.1612777588D+00  0.1000000000D+01
 P   1 1.00       0.000000000000
      0.1100000000D+01  0.1000000000D+01
 ****
     11 0
 S   3 1.00       0.000000000000
      0.1873113696D+02  0.3349460434D-01
      0.2825394365D+01  0.2347269535D+00
      0.6401216923D+00  0.8137573261D+00
 S   1 1.00       0.000000000000
      0.1612777588D+00  0.1000000000D+01
 P   1 1.00       0.000000000000
      0.1100000000D+01  0.1000000000D+01
 ****

 There are    65 symmetry adapted basis functions of A'  symmetry.
 There are    32 symmetry adapted basis functions of A"  symmetry.
 Integral buffers will be    131072 words long.
 Raffenetti 2 integral format.
 Two-electron integral symmetry is turned on.
    97 basis functions,   152 primitive gaussians,    97 cartesian basis functions
    13 alpha electrons       13 beta electrons
       nuclear repulsion energy        82.4042194782 Hartrees.
 IExCor=  402 DFT=T Ex+Corr=B3LYP ExCW=0 ScaHFX=  0.200000
 ScaDFX=  0.800000  0.720000  1.000000  0.810000 ScalE2=  1.000000  1.000000
 IRadAn=      0 IRanWt=     -1 IRanGd=            0 ICorTp=0
 NAtoms=   11 NActive=   11 NUniq=    8 SFac= 1.42D+00 NAtFMM=   80 NAOKFM=F Big=F
 Leave Link  301 at Tue Aug 13 00:48:47 2024, MaxMem=   33554432 cpu:       0.1
 (Enter /programs/64bit/g09/g09-gfortran/bin/l302.exe)
 NPDir=0 NMtPBC=     1 NCelOv=     1 NCel=       1 NClECP=     1 NCelD=      1
         NCelK=      1 NCelE2=     1 NClLst=     1 CellRange=     0.0.
 One-electron integrals computed using PRISM.
 One-electron integral symmetry used in STVInt
 NBasis=    97 RedAO= T  NBF=    65    32
 NBsUse=    97 1.00D-06 NBFU=    65    32
 Precomputing XC quadrature grid using
 IXCGrd= 2 IRadAn=           0 IRanWt=          -1 IRanGd=           0 AccXCQ= 1.00D-10.
 NRdTot=     703 NPtTot=       89482 NUsed=       94559 NTot=       94591
 NSgBfM=    97    97    97    97    97 NAtAll=    11    11.
 Leave Link  302 at Tue Aug 13 00:48:47 2024, MaxMem=   33554432 cpu:       0.4
 (Enter /programs/64bit/g09/g09-gfortran/bin/l303.exe)
 DipDrv:  MaxL=1.
 Leave Link  303 at Tue Aug 13 00:48:47 2024, MaxMem=   33554432 cpu:       0.1
 (Enter /programs/64bit/g09/g09-gfortran/bin/l401.exe)
 Harris functional with IExCor=  402 diagonalized for initial guess.
 ExpMin= 4.38D-02 ExpMax= 3.05D+03 ExpMxC= 4.57D+02 IAcc=2 IRadAn=         0 AccDes= 0.00D+00
 HarFok:  IExCor=  402 AccDes= 0.00D+00 IRadAn=         0 IDoV= 1
 ScaDFX=  1.000000  1.000000  1.000000  1.000000
 FoFCou: FMM=F IPFlag=           0 FMFlag=      100000 FMFlg1=           0
         NFxFlg=           0 DoJE=T BraDBF=F KetDBF=T FulRan=T
         Omega=  0.000000  0.000000  1.000000  0.000000  0.000000 ICntrl=     500 IOpCl=  0
         NMat0=    1 NMatS0=    1 NMatT0=    0 NMatD0=    1 NMtDS0=    0 NMtDT0=    0
         I1Cent=           4 NGrid=           0.
 Petite list used in FoFCou.
 Harris En= -119.204057772317    
 Initial guess orbital symmetries:
       Occupied  (A') (A') (A') (A') (A') (A') (A") (A') (A") (A')
                 (A') (A") (A')
       Virtual   (A') (A') (A') (A") (A') (A') (A") (A') (A") (A')
                 (A') (A') (A') (A") (A") (A') (A') (A') (A") (A')
                 (A') (A') (A') (A') (A") (A') (A") (A') (A') (A")
                 (A') (A') (A') (A") (A") (A') (A") (A') (A') (A')
                 (A") (A') (A') (A') (A") (A') (A") (A') (A") (A")
                 (A') (A') (A") (A') (A') (A") (A") (A') (A") (A')
                 (A") (A') (A') (A") (A') (A') (A") (A') (A') (A')
                 (A') (A") (A") (A') (A') (A") (A') (A") (A') (A")
                 (A') (A') (A') (A')
 The electronic state of the initial guess is 1-A'.
 Leave Link  401 at Tue Aug 13 00:48:52 2024, MaxMem=   33554432 cpu:       4.1
 (Enter /programs/64bit/g09/g09-gfortran/bin/l502.exe)
 Closed shell SCF:
 Requested convergence on RMS density matrix=1.00D-08 within 128 cycles.
 Requested convergence on MAX density matrix=1.00D-06.
 Requested convergence on             energy=1.00D-06.
 No special actions if energy rises.
 Using DIIS extrapolation, IDIIS=  1040.
 Integral symmetry usage will be decided dynamically.
        94447 words used for storage of precomputed grid.
 Keep R1 ints in memory in canonical form, NReq=12357937.
 IEnd=      142278 IEndB=      142278 NGot=    33554432 MDV=    22140392
 LenX=    22140392 LenY=    22130542
 Symmetry not used in FoFDir.
 MinBra= 0 MaxBra= 2 Meth= 1.
 IRaf=       0 NMat=   1 IRICut=       1 DoRegI=T DoRafI=F ISym2E= 0 JSym2E=0.

 Cycle   1  Pass 1  IDiag  1:
 E= -118.952927259646    
 DIIS: error= 5.15D-02 at cycle   1 NSaved=   1.
 NSaved= 1 IEnMin= 1 EnMin= -118.952927259646     IErMin= 1 ErrMin= 5.15D-02
 ErrMax= 5.15D-02 EMaxC= 1.00D-01 BMatC= 1.57D-01 BMatP= 1.57D-01
 IDIUse=3 WtCom= 4.85D-01 WtEn= 5.15D-01
 Coeff-Com:  0.100D+01
 Coeff-En:   0.100D+01
 Coeff:      0.100D+01
 Gap=     0.239 Goal=   None    Shift=    0.000
 GapD=    0.239 DampG=1.000 DampE=0.500 DampFc=0.5000 IDamp=-1.
 Damping current iteration by 5.00D-01
 RMSDP=9.82D-03 MaxDP=1.37D-01              OVMax= 2.20D-01

 Cycle   2  Pass 1  IDiag  1:
 E= -119.023388975107     Delta-E=       -0.070461715461 Rises=F Damp=T
 DIIS: error= 8.55D-03 at cycle   2 NSaved=   2.
 NSaved= 2 IEnMin= 2 EnMin= -119.023388975107     IErMin= 2 ErrMin= 8.55D-03
 ErrMax= 8.55D-03 EMaxC= 1.00D-01 BMatC= 8.05D-03 BMatP= 1.57D-01
 IDIUse=3 WtCom= 9.14D-01 WtEn= 8.55D-02
 Coeff-Com:  0.124D+00 0.876D+00
 Coeff-En:   0.216D+00 0.784D+00
 Coeff:      0.132D+00 0.868D+00
 Gap=     0.339 Goal=   None    Shift=    0.000
 RMSDP=1.92D-03 MaxDP=3.63D-02 DE=-7.05D-02 OVMax= 1.35D-01

 Cycle   3  Pass 1  IDiag  1:
 E= -119.130859758533     Delta-E=       -0.107470783426 Rises=F Damp=F
 DIIS: error= 4.11D-03 at cycle   3 NSaved=   3.
 NSaved= 3 IEnMin= 3 EnMin= -119.130859758533     IErMin= 3 ErrMin= 4.11D-03
 ErrMax= 4.11D-03 EMaxC= 1.00D-01 BMatC= 8.82D-04 BMatP= 8.05D-03
 IDIUse=3 WtCom= 9.59D-01 WtEn= 4.11D-02
 Coeff-Com:  0.134D-01 0.221D+00 0.766D+00
 Coeff-En:   0.000D+00 0.000D+00 0.100D+01
 Coeff:      0.129D-01 0.212D+00 0.775D+00
 Gap=     0.333 Goal=   None    Shift=    0.000
 RMSDP=4.34D-04 MaxDP=6.36D-03 DE=-1.07D-01 OVMax= 1.01D-02

 Cycle   4  Pass 1  IDiag  1:
 E= -119.131598493510     Delta-E=       -0.000738734977 Rises=F Damp=F
 DIIS: error= 1.13D-03 at cycle   4 NSaved=   4.
 NSaved= 4 IEnMin= 4 EnMin= -119.131598493510     IErMin= 4 ErrMin= 1.13D-03
 ErrMax= 1.13D-03 EMaxC= 1.00D-01 BMatC= 1.42D-04 BMatP= 8.82D-04
 IDIUse=3 WtCom= 9.89D-01 WtEn= 1.13D-02
 Coeff-Com: -0.162D-02 0.264D-01 0.295D+00 0.680D+00
 Coeff-En:   0.000D+00 0.000D+00 0.000D+00 0.100D+01
 Coeff:     -0.160D-02 0.261D-01 0.292D+00 0.684D+00
 Gap=     0.333 Goal=   None    Shift=    0.000
 RMSDP=1.26D-04 MaxDP=3.24D-03 DE=-7.39D-04 OVMax= 3.52D-03

 Cycle   5  Pass 1  IDiag  1:
 E= -119.131718393396     Delta-E=       -0.000119899886 Rises=F Damp=F
 DIIS: error= 4.42D-04 at cycle   5 NSaved=   5.
 NSaved= 5 IEnMin= 5 EnMin= -119.131718393396     IErMin= 5 ErrMin= 4.42D-04
 ErrMax= 4.42D-04 EMaxC= 1.00D-01 BMatC= 1.74D-05 BMatP= 1.42D-04
 IDIUse=3 WtCom= 9.96D-01 WtEn= 4.42D-03
 Coeff-Com: -0.118D-02-0.189D-02 0.917D-01 0.335D+00 0.576D+00
 Coeff-En:   0.000D+00 0.000D+00 0.000D+00 0.000D+00 0.100D+01
 Coeff:     -0.118D-02-0.189D-02 0.913D-01 0.334D+00 0.578D+00
 Gap=     0.333 Goal=   None    Shift=    0.000
 RMSDP=3.96D-05 MaxDP=9.70D-04 DE=-1.20D-04 OVMax= 1.08D-03

 Cycle   6  Pass 1  IDiag  1:
 E= -119.131734796811     Delta-E=       -0.000016403416 Rises=F Damp=F
 DIIS: error= 4.00D-05 at cycle   6 NSaved=   6.
 NSaved= 6 IEnMin= 6 EnMin= -119.131734796811     IErMin= 6 ErrMin= 4.00D-05
 ErrMax= 4.00D-05 EMaxC= 1.00D-01 BMatC= 9.14D-08 BMatP= 1.74D-05
 IDIUse=1 WtCom= 1.00D+00 WtEn= 0.00D+00
 Coeff-Com:  0.111D-04-0.100D-02 0.144D-01 0.599D-01 0.136D+00 0.791D+00
 Coeff:      0.111D-04-0.100D-02 0.144D-01 0.599D-01 0.136D+00 0.791D+00
 Gap=     0.333 Goal=   None    Shift=    0.000
 RMSDP=5.70D-06 MaxDP=5.68D-05 DE=-1.64D-05 OVMax= 9.32D-05

 Cycle   7  Pass 1  IDiag  1:
 E= -119.131734899769     Delta-E=       -0.000000102957 Rises=F Damp=F
 DIIS: error= 5.10D-06 at cycle   7 NSaved=   7.
 NSaved= 7 IEnMin= 7 EnMin= -119.131734899769     IErMin= 7 ErrMin= 5.10D-06
 ErrMax= 5.10D-06 EMaxC= 1.00D-01 BMatC= 1.93D-09 BMatP= 9.14D-08
 IDIUse=1 WtCom= 1.00D+00 WtEn= 0.00D+00
 Coeff-Com:  0.903D-04-0.145D-03-0.102D-02-0.271D-02-0.465D-03 0.116D+00
 Coeff-Com:  0.888D+00
 Coeff:      0.903D-04-0.145D-03-0.102D-02-0.271D-02-0.465D-03 0.116D+00
 Coeff:      0.888D+00
 Gap=     0.333 Goal=   None    Shift=    0.000
 RMSDP=7.45D-07 MaxDP=1.03D-05 DE=-1.03D-07 OVMax= 1.44D-05

 Cycle   8  Pass 1  IDiag  1:
 E= -119.131734901904     Delta-E=       -0.000000002135 Rises=F Damp=F
 DIIS: error= 9.34D-07 at cycle   8 NSaved=   8.
 NSaved= 8 IEnMin= 8 EnMin= -119.131734901904     IErMin= 8 ErrMin= 9.34D-07
 ErrMax= 9.34D-07 EMaxC= 1.00D-01 BMatC= 1.15D-10 BMatP= 1.93D-09
 IDIUse=1 WtCom= 1.00D+00 WtEn= 0.00D+00
 Coeff-Com:  0.315D-04-0.451D-04-0.530D-03-0.161D-02-0.152D-02 0.339D-01
 Coeff-Com:  0.329D+00 0.641D+00
 Coeff:      0.315D-04-0.451D-04-0.530D-03-0.161D-02-0.152D-02 0.339D-01
 Coeff:      0.329D+00 0.641D+00
 Gap=     0.333 Goal=   None    Shift=    0.000
 RMSDP=1.46D-07 MaxDP=2.72D-06 DE=-2.14D-09 OVMax= 3.47D-06

 Cycle   9  Pass 1  IDiag  1:
 E= -119.131734902000     Delta-E=       -0.000000000096 Rises=F Damp=F
 DIIS: error= 3.84D-07 at cycle   9 NSaved=   9.
 NSaved= 9 IEnMin= 9 EnMin= -119.131734902000     IErMin= 9 ErrMin= 3.84D-07
 ErrMax= 3.84D-07 EMaxC= 1.00D-01 BMatC= 1.99D-11 BMatP= 1.15D-10
 IDIUse=1 WtCom= 1.00D+00 WtEn= 0.00D+00
 Coeff-Com: -0.345D-06 0.582D-07-0.697D-04-0.239D-03-0.436D-03-0.159D-02
 Coeff-Com:  0.146D-01 0.300D+00 0.688D+00
 Coeff:     -0.345D-06 0.582D-07-0.697D-04-0.239D-03-0.436D-03-0.159D-02
 Coeff:      0.146D-01 0.300D+00 0.688D+00
 Gap=     0.333 Goal=   None    Shift=    0.000
 RMSDP=4.90D-08 MaxDP=8.90D-07 DE=-9.60D-11 OVMax= 1.10D-06

 Cycle  10  Pass 1  IDiag  1:
 E= -119.131734902021     Delta-E=       -0.000000000021 Rises=F Damp=F
 DIIS: error= 1.91D-08 at cycle  10 NSaved=  10.
 NSaved=10 IEnMin=10 EnMin= -119.131734902021     IErMin=10 ErrMin= 1.91D-08
 ErrMax= 1.91D-08 EMaxC= 1.00D-01 BMatC= 2.13D-14 BMatP= 1.99D-11
 IDIUse=1 WtCom= 1.00D+00 WtEn= 0.00D+00
 Coeff-Com: -0.421D-06 0.394D-06-0.314D-05-0.143D-04-0.451D-04-0.558D-03
 Coeff-Com: -0.958D-03 0.362D-01 0.981D-01 0.867D+00
 Coeff:     -0.421D-06 0.394D-06-0.314D-05-0.143D-04-0.451D-04-0.558D-03
 Coeff:     -0.958D-03 0.362D-01 0.981D-01 0.867D+00
 Gap=     0.333 Goal=   None    Shift=    0.000
 RMSDP=3.35D-09 MaxDP=4.16D-08 DE=-2.06D-11 OVMax= 6.80D-08

 SCF Done:  E(RB3LYP) =  -119.131734902     A.U. after   10 cycles
             Convg  =    0.3355D-08             -V/T =  2.0101
 KE= 1.179374375954D+02 PE=-4.392879975407D+02 EE= 1.198146055651D+02
 Leave Link  502 at Tue Aug 13 00:49:34 2024, MaxMem=   33554432 cpu:      41.7
 (Enter /programs/64bit/g09/g09-gfortran/bin/l601.exe)
 Copying SCF densities to generalized density rwf, IOpCl= 0 IROHF=0.

 **********************************************************************

            Population analysis using the SCF density.

 **********************************************************************

 Orbital symmetries:
       Occupied  (A') (A') (A') (A') (A') (A') (A") (A') (A") (A')
                 (A') (A") (A')
       Virtual   (A') (A') (A') (A") (A') (A') (A") (A') (A") (A')
                 (A') (A') (A') (A") (A") (A') (A') (A') (A") (A')
                 (A') (A') (A') (A') (A") (A') (A") (A') (A') (A")
                 (A') (A') (A') (A") (A") (A') (A") (A') (A') (A')
                 (A") (A') (A') (A') (A") (A') (A") (A") (A') (A")
                 (A') (A') (A") (A') (A') (A") (A") (A') (A") (A")
                 (A') (A') (A") (A') (A') (A') (A') (A") (A') (A')
                 (A') (A") (A") (A') (A') (A") (A') (A") (A') (A")
                 (A') (A') (A') (A')
 The electronic state is 1-A'.
 Alpha  occ. eigenvalues --  -10.18225 -10.17525 -10.17328  -0.78165  -0.68744
 Alpha  occ. eigenvalues --   -0.58775  -0.46767  -0.43655  -0.41212  -0.37087
 Alpha  occ. eigenvalues --   -0.33165  -0.32918  -0.31893
 Alpha virt. eigenvalues --    0.01444   0.02835   0.03659   0.04272   0.07518
 Alpha virt. eigenvalues --    0.07785   0.07808   0.08091   0.09266   0.11320
 Alpha virt. eigenvalues --    0.12306   0.13761   0.18218   0.21031   0.22646
 Alpha virt. eigenvalues --    0.24005   0.26758   0.26866   0.28183   0.29935
 Alpha virt. eigenvalues --    0.33743   0.34745   0.62077   0.62755   0.64890
 Alpha virt. eigenvalues --    0.64936   0.68195   0.70304   0.72017   0.74646
 Alpha virt. eigenvalues --    0.79419   0.92283   0.92357   0.93549   0.97182
 Alpha virt. eigenvalues --    0.99792   1.07025   1.08293   1.10118   1.12173
 Alpha virt. eigenvalues --    1.30481   1.35652   1.38166   1.57621   1.57691
 Alpha virt. eigenvalues --    1.59382   1.69301   1.85933   1.87327   1.89937
 Alpha virt. eigenvalues --    1.91263   1.95059   2.12691   2.15191   2.17143
 Alpha virt. eigenvalues --    2.23157   2.23300   2.27737   2.32390   2.32859
 Alpha virt. eigenvalues --    2.33460   2.46690   2.50282   2.51019   2.65240
 Alpha virt. eigenvalues --    2.68655   2.70976   2.72215   2.73790   2.85473
 Alpha virt. eigenvalues --    2.87173   2.89699   2.91620   3.27706   3.32431
 Alpha virt. eigenvalues --    3.38801   3.38987   3.43369   3.51990   3.54239
 Alpha virt. eigenvalues --    3.59562   4.33849   4.53218   4.65497
     Molecular Orbital Coefficients:
                           1         2         3         4         5
                           O         O         O         O         O
     Eigenvalues --   -10.18225 -10.17525 -10.17328  -0.78165  -0.68744
   1 1   C  1S          0.99289  -0.01565  -0.01233  -0.14725   0.00113
   2        2S          0.05012  -0.00101  -0.00085   0.27946  -0.00203
   3        2PX         0.00004   0.00011  -0.00012   0.00273  -0.14492
   4        2PY         0.00009   0.00002   0.00002  -0.03897  -0.00254
   5        2PZ         0.00000   0.00000   0.00000   0.00000   0.00000
   6        3S         -0.02093   0.00487   0.00480   0.22810  -0.00239
   7        3PX        -0.00033  -0.00286   0.00296   0.00151  -0.02275
   8        3PY         0.00097  -0.00034  -0.00036  -0.01045  -0.00120
   9        3PZ         0.00000   0.00000   0.00000   0.00000   0.00000
  10        4S          0.00125   0.00853   0.00839  -0.02689  -0.00089
  11        4PX        -0.00021  -0.00048   0.00053   0.00061   0.00920
  12        4PY        -0.00126  -0.00149  -0.00148   0.00820   0.00008
  13        4PZ         0.00000   0.00000   0.00000   0.00000   0.00000
  14        5XX        -0.00896  -0.00016  -0.00019   0.00138   0.00037
  15        5YY        -0.00871  -0.00012  -0.00015  -0.00391  -0.00005
  16        5ZZ        -0.00864   0.00003  -0.00001  -0.01083  -0.00014
  17        5XY         0.00003  -0.00012   0.00011   0.00022   0.01312
  18        5XZ         0.00000   0.00000   0.00000   0.00000   0.00000
  19        5YZ         0.00000   0.00000   0.00000   0.00000   0.00000
  20 2   C  1S          0.01203  -0.00299   0.99290  -0.11081   0.13897
  21        2S          0.00029  -0.00045   0.05007   0.21114  -0.26890
  22        2PX         0.00005   0.00010   0.00019  -0.04529  -0.03543
  23        2PY        -0.00008   0.00004   0.00015   0.03748  -0.01873
  24        2PZ         0.00000   0.00000   0.00000   0.00000   0.00000
  25        3S          0.00519   0.00149  -0.01858   0.16298  -0.25599
  26        3PX        -0.00205  -0.00075   0.00048  -0.00098  -0.00976
  27        3PY         0.00161  -0.00009  -0.00195   0.00823  -0.01050
  28        3PZ         0.00000   0.00000   0.00000   0.00000   0.00000
  29        4S         -0.00077  -0.00317  -0.00560   0.02020  -0.02846
  30        4PX         0.00046   0.00080   0.00066  -0.00367   0.00197
  31        4PY         0.00011  -0.00048  -0.00088   0.00235  -0.00477
  32        4PZ         0.00000   0.00000   0.00000   0.00000   0.00000
  33        5XX        -0.00042  -0.00002  -0.00903   0.00111   0.00689
  34        5YY        -0.00038  -0.00007  -0.00906  -0.00530   0.00789
  35        5ZZ        -0.00024  -0.00010  -0.00867  -0.00618   0.00435
  36        5XY         0.00015  -0.00003   0.00010  -0.00607   0.00019
  37        5XZ         0.00000   0.00000   0.00000   0.00000   0.00000
  38        5YZ         0.00000   0.00000   0.00000   0.00000   0.00000
  39 3   C  1S          0.01543   0.99285   0.00267  -0.10980  -0.14281
  40        2S          0.00049   0.05005  -0.00017   0.20967   0.27704
  41        2PX        -0.00007  -0.00017  -0.00010   0.04542  -0.03664
  42        2PY        -0.00010   0.00015   0.00005   0.03575   0.01767
  43        2PZ         0.00000   0.00000   0.00000   0.00000   0.00000
  44        3S          0.00479  -0.01855   0.00147   0.16228   0.26231
  45        3PX         0.00194  -0.00051   0.00078   0.00139  -0.01028
  46        3PY         0.00148  -0.00193  -0.00008   0.00783   0.00971
  47        3PZ         0.00000   0.00000   0.00000   0.00000   0.00000
  48        4S         -0.00102  -0.00562  -0.00308   0.02030   0.02914
  49        4PX        -0.00041  -0.00068  -0.00080   0.00332   0.00211
  50        4PY         0.00006  -0.00087  -0.00045   0.00249   0.00478
  51        4PZ         0.00000   0.00000   0.00000   0.00000   0.00000
  52        5XX        -0.00046  -0.00902  -0.00007   0.00136  -0.00701
  53        5YY        -0.00042  -0.00905  -0.00012  -0.00549  -0.00824
  54        5ZZ        -0.00027  -0.00866  -0.00015  -0.00609  -0.00433
  55        5XY        -0.00017  -0.00009   0.00003   0.00594   0.00007
  56        5XZ         0.00000   0.00000   0.00000   0.00000   0.00000
  57        5YZ         0.00000   0.00000   0.00000   0.00000   0.00000
  58 4   H  1S         -0.00009  -0.00016  -0.00017   0.08229  -0.00360
  59        2S          0.00356  -0.00059  -0.00056   0.01474  -0.00082
  60        3PX         0.00001   0.00005  -0.00002  -0.00026  -0.00212
  61        3PY         0.00007  -0.00004  -0.00006  -0.00555   0.00018
  62        3PZ         0.00018   0.00001   0.00002  -0.00659   0.00022
  63 5   H  1S         -0.00009  -0.00016  -0.00017   0.08229  -0.00360
  64        2S          0.00356  -0.00059  -0.00056   0.01474  -0.00082
  65        3PX         0.00001   0.00005  -0.00002  -0.00026  -0.00212
  66        3PY         0.00007  -0.00004  -0.00006  -0.00555   0.00018
  67        3PZ        -0.00018  -0.00001  -0.00002   0.00659  -0.00022
  68 6   H  1S         -0.00019  -0.00003  -0.00011   0.06315  -0.11183
  69        2S         -0.00020   0.00044   0.00396   0.00747  -0.02860
  70        3PX         0.00000  -0.00005   0.00007  -0.00563   0.00773
  71        3PY        -0.00002  -0.00002   0.00020  -0.00343   0.00586
  72        3PZ         0.00000   0.00000   0.00000   0.00000   0.00000
  73 7   H  1S         -0.00018  -0.00011  -0.00003   0.06245   0.11473
  74        2S         -0.00022   0.00395   0.00046   0.00749   0.02962
  75        3PX        -0.00001  -0.00006   0.00005   0.00553   0.00785
  76        3PY        -0.00002   0.00020  -0.00002  -0.00347  -0.00615
  77        3PZ         0.00000   0.00000   0.00000   0.00000   0.00000
  78 8   H  1S         -0.00019  -0.00003  -0.00023   0.06251  -0.09681
  79        2S          0.00015  -0.00047   0.00288   0.01176  -0.02630
  80        3PX        -0.00003   0.00007  -0.00001  -0.00143   0.00017
  81        3PY         0.00001   0.00000  -0.00008   0.00339  -0.00452
  82        3PZ        -0.00004   0.00000   0.00023  -0.00548   0.00774
  83 9   H  1S         -0.00019  -0.00003  -0.00023   0.06251  -0.09681
  84        2S          0.00015  -0.00047   0.00288   0.01176  -0.02630
  85        3PX        -0.00003   0.00007  -0.00001  -0.00143   0.00017
  86        3PY         0.00001   0.00000  -0.00008   0.00339  -0.00452
  87        3PZ         0.00004  -0.00000  -0.00023   0.00548  -0.00774
  88 10  H  1S         -0.00018  -0.00023  -0.00003   0.06226   0.10019
  89        2S          0.00016   0.00288  -0.00045   0.01185   0.02756
  90        3PX         0.00004   0.00001  -0.00007   0.00146   0.00025
  91        3PY         0.00001  -0.00008   0.00000   0.00335   0.00464
  92        3PZ         0.00004  -0.00022  -0.00000   0.00545   0.00799
  93 11  H  1S         -0.00018  -0.00023  -0.00003   0.06226   0.10019
  94        2S          0.00016   0.00288  -0.00045   0.01185   0.02756
  95        3PX         0.00004   0.00001  -0.00007   0.00146   0.00025
  96        3PY         0.00001  -0.00008   0.00000   0.00335   0.00464
  97        3PZ        -0.00004   0.00022   0.00000  -0.00545  -0.00799
                           6         7         8         9        10
                           O         O         O         O         O
     Eigenvalues --    -0.58775  -0.46767  -0.43655  -0.41212  -0.37087
   1 1   C  1S         -0.12993   0.00000   0.02300   0.00000   0.00308
   2        2S          0.26187   0.00000  -0.05063   0.00000  -0.00682
   3        2PX         0.00476   0.00000   0.01560   0.00000   0.34951
   4        2PY         0.13486   0.00000   0.31428   0.00000  -0.00281
   5        2PZ         0.00000   0.25599   0.00000  -0.00475   0.00000
   6        3S          0.27815   0.00000  -0.06833   0.00000  -0.00876
   7        3PX         0.00321   0.00000   0.00786   0.00000   0.16213
   8        3PY         0.04772   0.00000   0.13184   0.00000  -0.00241
   9        3PZ         0.00000   0.11109   0.00000  -0.00170   0.00000
  10        4S          0.06148   0.00000  -0.09893   0.00000  -0.01617
  11        4PX         0.00189   0.00000   0.00396   0.00000   0.05992
  12        4PY        -0.00371   0.00000   0.04027   0.00000   0.00273
  13        4PZ         0.00000   0.01496   0.00000  -0.00019   0.00000
  14        5XX        -0.01607   0.00000   0.00063   0.00000  -0.00070
  15        5YY        -0.00486   0.00000  -0.00419   0.00000   0.00094
  16        5ZZ        -0.00039   0.00000   0.01011   0.00000   0.00042
  17        5XY         0.00097   0.00000   0.00039   0.00000  -0.00623
  18        5XZ         0.00000   0.00080   0.00000  -0.01276   0.00000
  19        5YZ         0.00000   0.00361   0.00000  -0.00040   0.00000
  20 2   C  1S          0.08474   0.00000   0.00483   0.00000   0.00022
  21        2S         -0.16928   0.00000  -0.01413   0.00000   0.00308
  22        2PX        -0.11460   0.00000   0.25747   0.00000  -0.13626
  23        2PY         0.07642   0.00000   0.08708   0.00000   0.27098
  24        2PZ         0.00000   0.25606   0.00000  -0.31569   0.00000
  25        3S         -0.18003   0.00000   0.00049   0.00000  -0.01163
  26        3PX        -0.03111   0.00000   0.09971   0.00000  -0.05537
  27        3PY         0.01875   0.00000   0.04582   0.00000   0.11843
  28        3PZ         0.00000   0.10573   0.00000  -0.14411   0.00000
  29        4S         -0.03563   0.00000   0.05542   0.00000  -0.02839
  30        4PX         0.00185   0.00000   0.00334   0.00000  -0.02348
  31        4PY        -0.00258   0.00000   0.00822   0.00000   0.01632
  32        4PZ         0.00000   0.01012   0.00000  -0.02904   0.00000
  33        5XX         0.00766   0.00000  -0.00269   0.00000   0.00463
  34        5YY         0.00933   0.00000   0.00629   0.00000   0.00662
  35        5ZZ        -0.00227   0.00000  -0.00206   0.00000  -0.01314
  36        5XY        -0.00924   0.00000   0.00934   0.00000  -0.00360
  37        5XZ         0.00000  -0.00181   0.00000  -0.00535   0.00000
  38        5YZ         0.00000  -0.00513   0.00000   0.01134   0.00000
  39 3   C  1S          0.07940   0.00000   0.00359   0.00000  -0.00092
  40        2S         -0.15884   0.00000  -0.01218   0.00000  -0.00233
  41        2PX         0.11074   0.00000  -0.27008   0.00000  -0.12799
  42        2PY         0.07239   0.00000   0.07683   0.00000  -0.30557
  43        2PZ         0.00000   0.25718   0.00000   0.32060   0.00000
  44        3S         -0.16688   0.00000   0.00747   0.00000   0.01428
  45        3PX         0.03094   0.00000  -0.10362   0.00000  -0.05105
  46        3PY         0.01857   0.00000   0.04309   0.00000  -0.13378
  47        3PZ         0.00000   0.10366   0.00000   0.14497   0.00000
  48        4S         -0.02992   0.00000   0.06429   0.00000   0.04443
  49        4PX        -0.00143   0.00000  -0.00346   0.00000  -0.01859
  50        4PY        -0.00160   0.00000   0.00928   0.00000  -0.01696
  51        4PZ         0.00000   0.00942   0.00000   0.02900   0.00000
  52        5XX         0.00759   0.00000  -0.00308   0.00000  -0.00625
  53        5YY         0.00857   0.00000   0.00583   0.00000  -0.00722
  54        5ZZ        -0.00229   0.00000  -0.00149   0.00000   0.01477
  55        5XY         0.00899   0.00000  -0.00983   0.00000  -0.00302
  56        5XZ         0.00000   0.00171   0.00000  -0.00570   0.00000
  57        5YZ         0.00000  -0.00539   0.00000  -0.01173   0.00000
  58 4   H  1S          0.14363   0.11082   0.09876  -0.00373   0.00363
  59        2S          0.05556   0.06835   0.07521  -0.00323   0.00316
  60        3PX        -0.00032  -0.00009   0.00009  -0.00144   0.00695
  61        3PY        -0.00502  -0.00478   0.00170   0.00016  -0.00028
  62        3PZ        -0.00878  -0.00002  -0.00460  -0.00009  -0.00016
  63 5   H  1S          0.14363  -0.11082   0.09876   0.00373   0.00363
  64        2S          0.05556  -0.06835   0.07521   0.00323   0.00316
  65        3PX        -0.00032   0.00009   0.00009   0.00144   0.00695
  66        3PY        -0.00502   0.00478   0.00170  -0.00016  -0.00028
  67        3PZ         0.00878  -0.00002   0.00460  -0.00009   0.00016
  68 6   H  1S         -0.09070   0.00000   0.15209   0.00000   0.02994
  69        2S         -0.03797   0.00000   0.10871   0.00000   0.02831
  70        3PX         0.00386   0.00000  -0.00288   0.00000  -0.00428
  71        3PY         0.00590   0.00000  -0.00296   0.00000   0.00541
  72        3PZ         0.00000   0.00511   0.00000  -0.00685   0.00000
  73 7   H  1S         -0.08548   0.00000   0.15516   0.00000  -0.05007
  74        2S         -0.03607   0.00000   0.10981   0.00000  -0.04632
  75        3PX        -0.00353   0.00000   0.00267   0.00000  -0.00497
  76        3PY         0.00563   0.00000  -0.00347   0.00000  -0.00550
  77        3PZ         0.00000   0.00519   0.00000   0.00698   0.00000
  78 8   H  1S         -0.09288   0.13034  -0.01102  -0.17366  -0.09809
  79        2S         -0.04112   0.08194  -0.00857  -0.12150  -0.08523
  80        3PX        -0.00087  -0.00174   0.00568   0.00050  -0.00213
  81        3PY        -0.00240   0.00404   0.00174  -0.00467   0.00278
  82        3PZ         0.00637  -0.00237   0.00020   0.00323   0.00424
  83 9   H  1S         -0.09288  -0.13034  -0.01102   0.17366  -0.09809
  84        2S         -0.04112  -0.08194  -0.00857   0.12150  -0.08523
  85        3PX        -0.00087   0.00174   0.00568  -0.00050  -0.00213
  86        3PY        -0.00240  -0.00404   0.00174   0.00467   0.00278
  87        3PZ        -0.00637  -0.00237  -0.00020   0.00323  -0.00424
  88 10  H  1S         -0.08784  -0.13125  -0.00515  -0.17685   0.11009
  89        2S         -0.03915  -0.08415  -0.00460  -0.12494   0.09629
  90        3PX         0.00080  -0.00180  -0.00590  -0.00054  -0.00173
  91        3PY        -0.00224  -0.00406   0.00175  -0.00472  -0.00331
  92        3PZ        -0.00602  -0.00241   0.00011  -0.00331   0.00473
  93 11  H  1S         -0.08784   0.13125  -0.00515   0.17685   0.11009
  94        2S         -0.03915   0.08415  -0.00460   0.12494   0.09629
  95        3PX         0.00080   0.00180  -0.00590   0.00054  -0.00173
  96        3PY        -0.00224   0.00406   0.00175   0.00472  -0.00331
  97        3PZ         0.00602  -0.00241  -0.00011  -0.00331  -0.00473
                          11        12        13        14        15
                           O         O         O         V         V
     Eigenvalues --    -0.33165  -0.32918  -0.31893   0.01444   0.02835
   1 1   C  1S         -0.00157   0.00000  -0.01593  -0.03704   0.00350
   2        2S          0.00383   0.00000   0.04441   0.06273  -0.00789
   3        2PX        -0.21569   0.00000   0.02532   0.00174   0.07137
   4        2PY        -0.00836   0.00000  -0.27324   0.12747  -0.00510
   5        2PZ         0.00000   0.37145   0.00000   0.00000   0.00000
   6        3S          0.00311   0.00000   0.02752   0.39115  -0.02407
   7        3PX        -0.07767   0.00000   0.01163   0.00090   0.04496
   8        3PY        -0.00195   0.00000  -0.10989   0.15553  -0.00447
   9        3PZ         0.00000   0.17676   0.00000   0.00000   0.00000
  10        4S          0.00296   0.00000  -0.04333   2.83529  -0.33719
  11        4PX        -0.03788   0.00000   0.00373  -0.07326   2.14283
  12        4PY        -0.00201   0.00000  -0.04780  -1.03103   0.07336
  13        4PZ         0.00000   0.07317   0.00000   0.00000   0.00000
  14        5XX         0.00116   0.00000   0.02214   0.00090   0.00024
  15        5YY        -0.00091   0.00000  -0.01333  -0.00603   0.00037
  16        5ZZ        -0.00059   0.00000  -0.01294  -0.00670  -0.00014
  17        5XY         0.01738   0.00000  -0.00236   0.00023   0.00831
  18        5XZ         0.00000   0.00147   0.00000   0.00000   0.00000
  19        5YZ         0.00000   0.02897   0.00000   0.00000   0.00000
  20 2   C  1S          0.02975   0.00000  -0.01174  -0.04516   0.04307
  21        2S         -0.06496   0.00000   0.02554   0.08671  -0.09506
  22        2PX         0.30324   0.00000  -0.04718   0.08766  -0.08297
  23        2PY         0.14361   0.00000   0.30272  -0.02686  -0.01766
  24        2PZ         0.00000  -0.17524   0.00000   0.00000   0.00000
  25        3S         -0.10231   0.00000   0.05844   0.36583  -0.32111
  26        3PX         0.14162   0.00000  -0.02307   0.08652  -0.08481
  27        3PY         0.06334   0.00000   0.15536  -0.06504   0.02357
  28        3PZ         0.00000  -0.07000   0.00000   0.00000   0.00000
  29        4S         -0.01279   0.00000  -0.00197  -2.25514  -3.39602
  30        4PX         0.04770   0.00000   0.00048   0.22916   1.52072
  31        4PY         0.03303   0.00000   0.04535  -0.19864  -0.62537
  32        4PZ         0.00000  -0.03653   0.00000   0.00000   0.00000
  33        5XX         0.01499   0.00000   0.01496  -0.00762   0.00148
  34        5YY         0.00111   0.00000  -0.00153  -0.00403   0.00576
  35        5ZZ        -0.00926   0.00000  -0.01711  -0.00541   0.00260
  36        5XY         0.01881   0.00000   0.00427  -0.00640  -0.00508
  37        5XZ         0.00000  -0.01084   0.00000   0.00000   0.00000
  38        5YZ         0.00000   0.01628   0.00000   0.00000   0.00000
  39 3   C  1S         -0.03010   0.00000  -0.00700  -0.04435  -0.04824
  40        2S          0.06596   0.00000   0.01521   0.08529   0.10513
  41        2PX         0.30057   0.00000   0.00340  -0.08497  -0.08236
  42        2PY        -0.11340   0.00000   0.28599  -0.02733   0.01234
  43        2PZ         0.00000  -0.16558   0.00000   0.00000   0.00000
  44        3S          0.10589   0.00000   0.04130   0.35923   0.36211
  45        3PX         0.14101   0.00000   0.00187  -0.08507  -0.07934
  46        3PY        -0.04813   0.00000   0.14607  -0.06541  -0.03294
  47        3PZ         0.00000  -0.06719   0.00000   0.00000   0.00000
  48        4S          0.00837   0.00000  -0.00695  -2.40938   3.68470
  49        4PX         0.04552   0.00000  -0.01026  -0.26185   1.66418
  50        4PY        -0.02969   0.00000   0.04539  -0.21827   0.69543
  51        4PZ         0.00000  -0.03554   0.00000   0.00000   0.00000
  52        5XX        -0.01297   0.00000   0.01599  -0.00769  -0.00241
  53        5YY        -0.00130   0.00000  -0.00175  -0.00407  -0.00659
  54        5ZZ         0.00746   0.00000  -0.01647  -0.00518  -0.00270
  55        5XY         0.01838   0.00000  -0.00662   0.00638  -0.00592
  56        5XZ         0.00000   0.01063   0.00000   0.00000   0.00000
  57        5YZ         0.00000   0.01536   0.00000   0.00000   0.00000
  58 4   H  1S         -0.00589   0.21801  -0.11609   0.00375   0.00261
  59        2S         -0.00547   0.21416  -0.11704   0.01487   0.00519
  60        3PX        -0.00303  -0.00040   0.00092  -0.00035   0.00645
  61        3PY         0.00014  -0.00633  -0.00283  -0.00476   0.00035
  62        3PZ         0.00034   0.00030   0.00474  -0.00762   0.00016
  63 5   H  1S         -0.00589  -0.21801  -0.11609   0.00375   0.00261
  64        2S         -0.00547  -0.21416  -0.11704   0.01487   0.00519
  65        3PX        -0.00303   0.00040   0.00092  -0.00035   0.00645
  66        3PY         0.00014   0.00633  -0.00283  -0.00476   0.00035
  67        3PZ        -0.00034   0.00030  -0.00474   0.00762  -0.00016
  68 6   H  1S          0.21699   0.00000   0.11933  -0.01925  -0.02753
  69        2S          0.21895   0.00000   0.11595   0.06974  -0.09488
  70        3PX        -0.00136   0.00000  -0.00471  -0.00804   0.00866
  71        3PY        -0.00285   0.00000   0.00266  -0.00778   0.00547
  72        3PZ         0.00000  -0.00432   0.00000   0.00000   0.00000
  73 7   H  1S         -0.20099   0.00000   0.13653  -0.02024   0.02795
  74        2S         -0.20326   0.00000   0.13450   0.06370   0.09958
  75        3PX        -0.00076   0.00000   0.00425   0.00779   0.00923
  76        3PY         0.00315   0.00000   0.00174  -0.00757  -0.00555
  77        3PZ         0.00000  -0.00407   0.00000   0.00000   0.00000
  78 8   H  1S         -0.06200  -0.11983  -0.10719   0.00354   0.00835
  79        2S         -0.05897  -0.12303  -0.11706   0.03139   0.09512
  80        3PX         0.00693  -0.00030   0.00054   0.00171   0.00157
  81        3PY         0.00249  -0.00184   0.00445   0.00217  -0.00295
  82        3PZ         0.00204   0.00201   0.00347  -0.00701   0.00388
  83 9   H  1S         -0.06200   0.11983  -0.10719   0.00354   0.00835
  84        2S         -0.05897   0.12303  -0.11706   0.03139   0.09512
  85        3PX         0.00693   0.00030   0.00054   0.00171   0.00157
  86        3PY         0.00249   0.00184   0.00445   0.00217  -0.00295
  87        3PZ        -0.00204   0.00201  -0.00347   0.00701  -0.00388
  88 10  H  1S          0.05018   0.11369  -0.10324   0.00402  -0.00841
  89        2S          0.04665   0.11668  -0.11254   0.03214  -0.09660
  90        3PX         0.00669  -0.00029  -0.00146  -0.00164   0.00195
  91        3PY        -0.00209   0.00168   0.00435   0.00216   0.00344
  92        3PZ         0.00164   0.00192  -0.00330   0.00692   0.00448
  93 11  H  1S          0.05018  -0.11369  -0.10324   0.00402  -0.00841
  94        2S          0.04665  -0.11668  -0.11254   0.03214  -0.09660
  95        3PX         0.00669   0.00029  -0.00146  -0.00164   0.00195
  96        3PY        -0.00209  -0.00168   0.00435   0.00216   0.00344
  97        3PZ        -0.00164   0.00192   0.00330  -0.00692  -0.00448
                          16        17        18        19        20
                           V         V         V         V         V
     Eigenvalues --     0.03659   0.04272   0.07518   0.07785   0.07808
   1 1   C  1S         -0.05188   0.00000   0.04057  -0.00392   0.00000
   2        2S          0.12162   0.00000  -0.06707   0.01670   0.00000
   3        2PX         0.00562   0.00000  -0.00143   0.00095   0.00000
   4        2PY         0.03840   0.00000   0.03815   0.00351   0.00000
   5        2PZ         0.00000  -0.13300   0.00000   0.00000   0.00766
   6        3S          0.36833   0.00000  -0.47536   0.00001   0.00000
   7        3PX         0.00321   0.00000   0.00211  -0.00058   0.00000
   8        3PY         0.05766   0.00000  -0.06218  -0.15657   0.00000
   9        3PZ         0.00000  -0.28958   0.00000   0.00000   0.00409
  10        4S          7.68136   0.00000   3.29319   5.94154   0.00000
  11        4PX         0.05079   0.00000  -0.04108  -0.03838   0.00000
  12        4PY        -2.05916   0.00000  -1.63620  -2.85094   0.00000
  13        4PZ         0.00000   0.00052   0.00000   0.00000  -0.08605
  14        5XX        -0.00253   0.00000   0.01133  -0.00455   0.00000
  15        5YY        -0.00829   0.00000  -0.00978  -0.00033   0.00000
  16        5ZZ         0.00286   0.00000   0.01828   0.01278   0.00000
  17        5XY         0.00048   0.00000  -0.00034   0.00019   0.00000
  18        5XZ         0.00000  -0.00021   0.00000   0.00000   0.00375
  19        5YZ         0.00000   0.00544   0.00000   0.00000  -0.00015
  20 2   C  1S          0.03604   0.00000   0.02712   0.01707   0.00000
  21        2S         -0.07291   0.00000  -0.01492  -0.01659   0.00000
  22        2PX         0.00853   0.00000   0.03001  -0.02095   0.00000
  23        2PY         0.05438   0.00000   0.14536  -0.07138   0.00000
  24        2PZ         0.00000  -0.14425   0.00000   0.00000   0.13184
  25        3S         -0.26937   0.00000  -0.45887  -0.25811   0.00000
  26        3PX         0.05273   0.00000   0.21359   0.11714   0.00000
  27        3PY         0.08571   0.00000   0.35281  -0.06108   0.00000
  28        3PZ         0.00000  -0.12506   0.00000   0.00000   0.10813
  29        4S         -3.72733   0.00000  -1.45384  -2.88477   0.00000
  30        4PX         1.51574   0.00000  -0.26161   1.22466   0.00000
  31        4PY        -0.92013   0.00000   0.21203   0.66157   0.00000
  32        4PZ         0.00000   0.67092   0.00000   0.00000  -1.26459
  33        5XX         0.00849   0.00000  -0.00796  -0.00145   0.00000
  34        5YY         0.00510   0.00000   0.00738  -0.00650   0.00000
  35        5ZZ        -0.00178   0.00000   0.02278   0.01578   0.00000
  36        5XY        -0.00716   0.00000   0.00910  -0.00445   0.00000
  37        5XZ         0.00000   0.00402   0.00000   0.00000  -0.00500
  38        5YZ         0.00000  -0.00134   0.00000   0.00000  -0.00346
  39 3   C  1S          0.03140   0.00000   0.02741   0.01654   0.00000
  40        2S         -0.06197   0.00000  -0.01500  -0.01487   0.00000
  41        2PX        -0.01741   0.00000  -0.03021   0.02342   0.00000
  42        2PY         0.05455   0.00000   0.14824  -0.07348   0.00000
  43        2PZ         0.00000  -0.14358   0.00000   0.00000  -0.13816
  44        3S         -0.23762   0.00000  -0.46017  -0.25645   0.00000
  45        3PX        -0.06269   0.00000  -0.21036  -0.11402   0.00000
  46        3PY         0.07904   0.00000   0.35801  -0.06401   0.00000
  47        3PZ         0.00000  -0.12586   0.00000   0.00000  -0.10984
  48        4S         -3.44268   0.00000  -1.59271  -3.00296   0.00000
  49        4PX        -1.34408   0.00000   0.22829  -1.25769   0.00000
  50        4PY        -0.84969   0.00000   0.15901   0.68648   0.00000
  51        4PZ         0.00000   0.65692   0.00000   0.00000   1.36126
  52        5XX         0.00822   0.00000  -0.00799  -0.00136   0.00000
  53        5YY         0.00442   0.00000   0.00775  -0.00670   0.00000
  54        5ZZ        -0.00173   0.00000   0.02280   0.01591   0.00000
  55        5XY         0.00635   0.00000  -0.00863   0.00422   0.00000
  56        5XZ         0.00000  -0.00407   0.00000   0.00000  -0.00446
  57        5YZ         0.00000  -0.00147   0.00000   0.00000   0.00375
  58 4   H  1S         -0.00436   0.01982   0.00406   0.02189  -0.00081
  59        2S         -0.06417   0.11529  -0.10285   0.01487   0.00674
  60        3PX         0.00007  -0.00003   0.00006  -0.00020  -0.00290
  61        3PY        -0.00797   0.00184  -0.00250  -0.00416  -0.00039
  62        3PZ        -0.00333   0.00413   0.00778   0.00256  -0.00027
  63 5   H  1S         -0.00436  -0.01982   0.00406   0.02189   0.00081
  64        2S         -0.06417  -0.11529  -0.10285   0.01487  -0.00674
  65        3PX         0.00007   0.00003   0.00006  -0.00020   0.00290
  66        3PY        -0.00797  -0.00184  -0.00250  -0.00416   0.00039
  67        3PZ         0.00333   0.00413  -0.00778  -0.00256  -0.00027
  68 6   H  1S         -0.00107   0.00000  -0.01242  -0.03547   0.00000
  69        2S         -0.01903   0.00000  -0.29820  -0.29275   0.00000
  70        3PX         0.00523   0.00000  -0.00247   0.00779   0.00000
  71        3PY        -0.00231   0.00000   0.00509   0.00086   0.00000
  72        3PZ         0.00000   0.00020   0.00000   0.00000  -0.00372
  73 7   H  1S          0.00145   0.00000  -0.01263  -0.03522   0.00000
  74        2S         -0.00990   0.00000  -0.29298  -0.28929   0.00000
  75        3PX        -0.00418   0.00000   0.00268  -0.00782   0.00000
  76        3PY        -0.00266   0.00000   0.00492   0.00111   0.00000
  77        3PZ         0.00000   0.00011   0.00000   0.00000   0.00353
  78 8   H  1S         -0.00596  -0.00357   0.05160   0.03976   0.01686
  79        2S         -0.01682  -0.08043   0.17488   0.08909   0.14375
  80        3PX         0.00343   0.00175  -0.00618   0.00065  -0.00469
  81        3PY        -0.00418  -0.00395   0.00269   0.00454   0.00239
  82        3PZ         0.00410   0.00737   0.00912   0.00313  -0.00708
  83 9   H  1S         -0.00596   0.00357   0.05160   0.03976  -0.01686
  84        2S         -0.01682   0.08043   0.17488   0.08909  -0.14375
  85        3PX         0.00343  -0.00175  -0.00618   0.00065   0.00469
  86        3PY        -0.00418   0.00395   0.00269   0.00454  -0.00239
  87        3PZ        -0.00410   0.00737  -0.00912  -0.00313  -0.00708
  88 10  H  1S         -0.00612   0.00283   0.05161   0.03972   0.01849
  89        2S         -0.02592   0.07491   0.17912   0.09253   0.15017
  90        3PX        -0.00322   0.00176   0.00612  -0.00046   0.00475
  91        3PY        -0.00376   0.00395   0.00258   0.00468   0.00263
  92        3PZ        -0.00369   0.00730  -0.00916  -0.00306   0.00737
  93 11  H  1S         -0.00612  -0.00283   0.05161   0.03972  -0.01849
  94        2S         -0.02592  -0.07491   0.17912   0.09253  -0.15017
  95        3PX        -0.00322  -0.00176   0.00612  -0.00046  -0.00475
  96        3PY        -0.00376  -0.00395   0.00258   0.00468  -0.00263
  97        3PZ         0.00369   0.00730   0.00916   0.00306   0.00737
                          21        22        23        24        25
                           V         V         V         V         V
     Eigenvalues --     0.08091   0.09266   0.11320   0.12306   0.13761
   1 1   C  1S          0.00074   0.00000   0.00217   0.02071  -0.00022
   2        2S         -0.00035   0.00000  -0.00518  -0.06722  -0.00061
   3        2PX         0.08996   0.00000  -0.00208  -0.00229  -0.00450
   4        2PY         0.00177   0.00000  -0.00883  -0.12347   0.00051
   5        2PZ         0.00000  -0.20170   0.00000   0.00000   0.00000
   6        3S         -0.01481   0.00000  -0.01319   0.04259   0.00502
   7        3PX         0.17126   0.00000  -0.07133   0.02520   0.33728
   8        3PY        -0.00367   0.00000  -0.00734  -0.27251   0.01149
   9        3PZ         0.00000  -0.26714   0.00000   0.00000   0.00000
  10        4S         -0.52625   0.00000   1.04058  31.18032  -0.32498
  11        4PX         0.95895   0.00000   2.91077   0.13707  12.42695
  12        4PY         0.10341   0.00000  -0.19710  -4.79173  -0.03456
  13        4PZ         0.00000   3.01961   0.00000   0.00000   0.00000
  14        5XX         0.00029   0.00000   0.00028   0.01247  -0.00037
  15        5YY         0.00011   0.00000  -0.00014  -0.00537   0.00015
  16        5ZZ         0.00004   0.00000   0.00037   0.00586  -0.00003
  17        5XY        -0.00513   0.00000   0.02419  -0.00142   0.00010
  18        5XZ         0.00000  -0.00043   0.00000   0.00000   0.00000
  19        5YZ         0.00000  -0.00076   0.00000   0.00000   0.00000
  20 2   C  1S          0.00028   0.00000   0.04350  -0.01901  -0.03500
  21        2S          0.00218   0.00000  -0.08450   0.07367   0.07550
  22        2PX         0.04175   0.00000   0.09896   0.04114   0.02825
  23        2PY         0.10584   0.00000   0.06717   0.08079  -0.11015
  24        2PZ         0.00000   0.07775   0.00000   0.00000   0.00000
  25        3S         -0.00209   0.00000  -0.44361  -0.04285   0.25066
  26        3PX         0.09271   0.00000   0.11638   0.28944   0.03622
  27        3PY         0.11071   0.00000   0.17731   0.07821  -0.39851
  28        3PZ         0.00000   0.06870   0.00000   0.00000   0.00000
  29        4S         -1.96410   0.00000   0.06056 -15.75446 -20.47015
  30        4PX         0.59644   0.00000  -1.80347   4.22840   4.09168
  31        4PY        -1.55038   0.00000  -1.20859  -2.94271  -4.34115
  32        4PZ         0.00000  -1.59861   0.00000   0.00000   0.00000
  33        5XX         0.00566   0.00000  -0.00580  -0.00575  -0.00338
  34        5YY         0.00284   0.00000   0.01057  -0.00715   0.00218
  35        5ZZ        -0.00946   0.00000   0.01241   0.00897  -0.01737
  36        5XY        -0.00510   0.00000  -0.00031  -0.00917   0.00072
  37        5XZ         0.00000   0.00561   0.00000   0.00000   0.00000
  38        5YZ         0.00000  -0.00041   0.00000   0.00000   0.00000
  39 3   C  1S          0.00067   0.00000  -0.04501  -0.01512   0.03561
  40        2S         -0.00428   0.00000   0.08884   0.06446  -0.07714
  41        2PX         0.04149   0.00000   0.09714  -0.04563   0.03171
  42        2PY        -0.10375   0.00000  -0.06462   0.08439   0.10868
  43        2PZ         0.00000   0.07039   0.00000   0.00000   0.00000
  44        3S         -0.00568   0.00000   0.45009  -0.05984  -0.25223
  45        3PX         0.09637   0.00000   0.10478  -0.28667   0.05502
  46        3PY        -0.09990   0.00000  -0.18085   0.10590   0.39245
  47        3PZ         0.00000   0.06052   0.00000   0.00000   0.00000
  48        4S          2.49560   0.00000  -1.09217 -15.01593  20.78676
  49        4PX         0.77758   0.00000  -2.05844  -4.03733   4.22619
  50        4PY         1.62171   0.00000   1.03541  -2.77243   4.36404
  51        4PZ         0.00000  -1.52716   0.00000   0.00000   0.00000
  52        5XX        -0.00614   0.00000   0.00633  -0.00584   0.00387
  53        5YY        -0.00221   0.00000  -0.01121  -0.00658  -0.00216
  54        5ZZ         0.00967   0.00000  -0.01265   0.01041   0.01724
  55        5XY        -0.00567   0.00000  -0.00072   0.00974   0.00028
  56        5XZ         0.00000  -0.00579   0.00000   0.00000   0.00000
  57        5YZ         0.00000   0.00012   0.00000   0.00000   0.00000
  58 4   H  1S         -0.00166  -0.00770   0.00484   0.00658   0.00039
  59        2S          0.00904  -0.09837  -0.00646  -0.36707  -0.00348
  60        3PX        -0.00418   0.00017   0.00998  -0.00042   0.00008
  61        3PY        -0.00018   0.00785   0.00026   0.00621   0.00028
  62        3PZ        -0.00022   0.00688   0.00053   0.01065  -0.00003
  63 5   H  1S         -0.00166   0.00770   0.00484   0.00658   0.00039
  64        2S          0.00904   0.09837  -0.00646  -0.36707  -0.00348
  65        3PX        -0.00418  -0.00017   0.00998  -0.00042   0.00008
  66        3PY        -0.00018  -0.00785   0.00026   0.00621   0.00028
  67        3PZ         0.00022   0.00688  -0.00053  -0.01065   0.00003
  68 6   H  1S          0.00398   0.00000  -0.02112  -0.06048   0.01436
  69        2S          0.08176   0.00000  -0.17930  -0.24446   0.50920
  70        3PX        -0.00297   0.00000  -0.00475  -0.00614  -0.00851
  71        3PY        -0.00622   0.00000   0.00449  -0.00552  -0.00116
  72        3PZ         0.00000   0.00275   0.00000   0.00000   0.00000
  73 7   H  1S         -0.00275   0.00000   0.02186  -0.06343  -0.01182
  74        2S         -0.08324   0.00000   0.18870  -0.26839  -0.49421
  75        3PX        -0.00289   0.00000  -0.00451   0.00601  -0.00862
  76        3PY         0.00665   0.00000  -0.00490  -0.00524   0.00139
  77        3PZ         0.00000   0.00303   0.00000   0.00000   0.00000
  78 8   H  1S         -0.02493   0.01433   0.04553   0.01887  -0.05554
  79        2S         -0.04750   0.06221   0.04879   0.20174  -0.04846
  80        3PX         0.00325  -0.00065   0.00261   0.00269  -0.00145
  81        3PY        -0.00303   0.00474  -0.00219   0.00588  -0.00203
  82        3PZ         0.00007  -0.00323   0.00724  -0.00037  -0.01078
  83 9   H  1S         -0.02493  -0.01433   0.04553   0.01887  -0.05554
  84        2S         -0.04750  -0.06221   0.04879   0.20174  -0.04846
  85        3PX         0.00325   0.00065   0.00261   0.00269  -0.00145
  86        3PY        -0.00303  -0.00474  -0.00219   0.00588  -0.00203
  87        3PZ        -0.00007  -0.00323  -0.00724   0.00037   0.01078
  88 10  H  1S          0.02563  -0.01291  -0.04765   0.02385   0.05506
  89        2S          0.05161  -0.05517  -0.05692   0.21208   0.04296
  90        3PX         0.00357  -0.00046   0.00258  -0.00287  -0.00137
  91        3PY         0.00291  -0.00468   0.00233   0.00587   0.00192
  92        3PZ        -0.00010  -0.00286   0.00731  -0.00034  -0.01087
  93 11  H  1S          0.02563   0.01291  -0.04765   0.02385   0.05506
  94        2S          0.05161   0.05517  -0.05692   0.21208   0.04296
  95        3PX         0.00357   0.00046   0.00258  -0.00287  -0.00137
  96        3PY         0.00291   0.00468   0.00233   0.00587   0.00192
  97        3PZ         0.00010  -0.00286  -0.00731   0.00034   0.01087
                          26        27        28        29        30
                           V         V         V         V         V
     Eigenvalues --     0.18218   0.21031   0.22646   0.24005   0.26758
   1 1   C  1S          0.04892   0.00000   0.00000   0.00076   0.12167
   2        2S         -0.07150   0.00000   0.00000  -0.00043  -0.15015
   3        2PX         0.00330   0.00000   0.00000   0.02947   0.04355
   4        2PY        -0.11829   0.00000   0.00000  -0.00274   0.31657
   5        2PZ         0.00000  -0.27508  -0.06358   0.00000   0.00000
   6        3S         -0.73300   0.00000   0.00000  -0.01394  -2.21567
   7        3PX         0.01956   0.00000   0.00000   0.09312   0.21347
   8        3PY        -0.20514   0.00000   0.00000  -0.01785   1.68034
   9        3PZ         0.00000  -1.03432  -0.22472   0.00000   0.00000
  10        4S         20.18238   0.00000   0.00000  -0.34399  12.44771
  11        4PX        -0.16909   0.00000   0.00000   4.31235  -0.53598
  12        4PY        -4.57901   0.00000   0.00000   0.04283  -2.37823
  13        4PZ         0.00000  -1.06537  -0.23209   0.00000   0.00000
  14        5XX        -0.01784   0.00000   0.00000   0.00044   0.01857
  15        5YY         0.02655   0.00000   0.00000  -0.00030   0.01523
  16        5ZZ         0.01932   0.00000   0.00000   0.00015  -0.01538
  17        5XY         0.00062   0.00000   0.00000   0.01277   0.00282
  18        5XZ         0.00000   0.00842  -0.02788   0.00000   0.00000
  19        5YZ         0.00000   0.03655   0.01018   0.00000   0.00000
  20 2   C  1S          0.00572   0.00000   0.00000  -0.00442  -0.05382
  21        2S         -0.00465   0.00000   0.00000  -0.01805   0.04432
  22        2PX        -0.01363   0.00000   0.00000   0.23373  -0.19244
  23        2PY        -0.16110   0.00000   0.00000   0.16476   0.08831
  24        2PZ         0.00000  -0.02451  -0.25287   0.00000   0.00000
  25        3S         -0.11394   0.00000   0.00000   0.25780   1.01532
  26        3PX        -0.09943   0.00000   0.00000   0.57139  -1.17925
  27        3PY        -0.54955   0.00000   0.00000   0.60667   0.24558
  28        3PZ         0.00000   0.07443  -1.29562   0.00000   0.00000
  29        4S         -9.91278   0.00000   0.00000 -10.62589  -5.30406
  30        4PX         2.30416   0.00000   0.00000   3.39906   1.73822
  31        4PY        -1.41600   0.00000   0.00000  -0.98496  -0.87075
  32        4PZ         0.00000   0.21919  -0.58060   0.00000   0.00000
  33        5XX         0.02174   0.00000   0.00000  -0.00996  -0.02755
  34        5YY        -0.00161   0.00000   0.00000  -0.01334   0.01154
  35        5ZZ        -0.01465   0.00000   0.00000   0.01304   0.00535
  36        5XY         0.01978   0.00000   0.00000  -0.00863   0.01288
  37        5XZ         0.00000   0.02278   0.00554   0.00000   0.00000
  38        5YZ         0.00000  -0.01079  -0.02557   0.00000   0.00000
  39 3   C  1S          0.00549   0.00000   0.00000   0.00418  -0.06173
  40        2S         -0.00467   0.00000   0.00000   0.01799   0.05140
  41        2PX         0.02016   0.00000   0.00000   0.23136   0.23403
  42        2PY        -0.15410   0.00000   0.00000  -0.16364   0.11783
  43        2PZ         0.00000  -0.12806   0.20022   0.00000   0.00000
  44        3S         -0.10884   0.00000   0.00000  -0.25576   1.18943
  45        3PX         0.11880   0.00000   0.00000   0.55590   1.38127
  46        3PY        -0.53052   0.00000   0.00000  -0.59432   0.40639
  47        3PZ         0.00000  -0.47719   1.10579   0.00000   0.00000
  48        4S        -10.10849   0.00000   0.00000  10.95394  -7.11001
  49        4PX        -2.28309   0.00000   0.00000   3.48632  -2.14027
  50        4PY        -1.48351   0.00000   0.00000   0.99287  -1.26238
  51        4PZ         0.00000  -0.00658   0.57847   0.00000   0.00000
  52        5XX         0.02142   0.00000   0.00000   0.00950  -0.02862
  53        5YY        -0.00111   0.00000   0.00000   0.01324   0.00886
  54        5ZZ        -0.01430   0.00000   0.00000  -0.01290   0.00805
  55        5XY        -0.02063   0.00000   0.00000  -0.00842  -0.01634
  56        5XZ         0.00000  -0.02412  -0.00550   0.00000   0.00000
  57        5YZ         0.00000  -0.02288   0.01674   0.00000   0.00000
  58 4   H  1S          0.07527   0.16833   0.04001   0.00183  -0.03692
  59        2S          0.25179   1.50363   0.36441   0.02244  -0.42875
  60        3PX        -0.00021   0.00341  -0.01314   0.00408   0.00209
  61        3PY         0.00321   0.00525   0.00212  -0.00023   0.01175
  62        3PZ         0.01038  -0.00346  -0.00080  -0.00005  -0.00359
  63 5   H  1S          0.07527  -0.16833  -0.04001   0.00183  -0.03692
  64        2S          0.25179  -1.50363  -0.36441   0.02244  -0.42875
  65        3PX        -0.00021  -0.00341   0.01314   0.00408   0.00209
  66        3PY         0.00321  -0.00525  -0.00212  -0.00023   0.01175
  67        3PZ        -0.01038  -0.00346  -0.00080   0.00005   0.00359
  68 6   H  1S          0.12015   0.00000   0.00000  -0.11250  -0.01204
  69        2S          0.89895   0.00000   0.00000  -1.19208   0.36241
  70        3PX         0.00286   0.00000   0.00000  -0.00321  -0.01328
  71        3PY        -0.00260   0.00000   0.00000  -0.00599   0.01102
  72        3PZ         0.00000   0.00218  -0.00675   0.00000   0.00000
  73 7   H  1S          0.12263   0.00000   0.00000   0.11075   0.00135
  74        2S          0.90666   0.00000   0.00000   1.16918   0.44183
  75        3PX        -0.00277   0.00000   0.00000  -0.00326   0.01380
  76        3PY        -0.00221   0.00000   0.00000   0.00590   0.01126
  77        3PZ         0.00000  -0.00135   0.00671   0.00000   0.00000
  78 8   H  1S         -0.08989   0.04909   0.11505   0.07024   0.02263
  79        2S         -0.57856   0.21714   1.53616   0.79761   0.00478
  80        3PX        -0.00456   0.00857   0.00213   0.00436  -0.00462
  81        3PY        -0.00348  -0.00417  -0.00881   0.00933   0.00100
  82        3PZ        -0.00178  -0.00193  -0.00451   0.00053   0.00002
  83 9   H  1S         -0.08989  -0.04909  -0.11505   0.07024   0.02263
  84        2S         -0.57856  -0.21714  -1.53616   0.79761   0.00478
  85        3PX        -0.00456  -0.00857  -0.00213   0.00436  -0.00462
  86        3PY        -0.00348   0.00417   0.00881   0.00933   0.00100
  87        3PZ         0.00178  -0.00193  -0.00451  -0.00053  -0.00002
  88 10  H  1S         -0.08925  -0.09895   0.07522  -0.06903   0.02906
  89        2S         -0.57784  -0.84378   1.18295  -0.78306   0.09236
  90        3PX         0.00476   0.00910   0.00189   0.00420   0.00635
  91        3PY        -0.00350   0.00796  -0.00567  -0.00925   0.00232
  92        3PZ         0.00144  -0.00376   0.00286   0.00052  -0.00076
  93 11  H  1S         -0.08925   0.09895  -0.07522  -0.06903   0.02906
  94        2S         -0.57784   0.84378  -1.18295  -0.78306   0.09236
  95        3PX         0.00476  -0.00910  -0.00189   0.00420   0.00635
  96        3PY        -0.00350  -0.00796   0.00567  -0.00925   0.00232
  97        3PZ        -0.00144  -0.00376   0.00286  -0.00052   0.00076
                          31        32        33        34        35
                           V         V         V         V         V
     Eigenvalues --     0.26866   0.28183   0.29935   0.33743   0.34745
   1 1   C  1S         -0.00537   0.00000  -0.01887   0.02611  -0.11822
   2        2S          0.00217   0.00000  -0.02578  -0.03193   0.14119
   3        2PX         0.41981   0.00000  -0.00768   0.10858   0.06606
   4        2PY        -0.05160   0.00000  -0.08452  -0.05205   0.23580
   5        2PZ         0.00000   0.15544   0.00000   0.00000   0.00000
   6        3S          0.12105   0.00000   0.35683  -0.56722   2.64786
   7        3PX         1.70273   0.00000  -0.04110   1.16065   0.49755
   8        3PY        -0.22630   0.00000  -0.25699  -0.24104   1.09498
   9        3PZ         0.00000   1.35572   0.00000   0.00000   0.00000
  10        4S         -2.63712   0.00000   6.50919  -6.25433  29.31038
  11        4PX        -5.48232   0.00000   0.05698   6.31115   1.42427
  12        4PY         0.54500   0.00000  -0.03045   0.99504  -4.82524
  13        4PZ         0.00000   1.98102   0.00000   0.00000   0.00000
  14        5XX        -0.00106   0.00000  -0.02254   0.00097  -0.00156
  15        5YY        -0.00213   0.00000   0.00246  -0.00102   0.00508
  16        5ZZ         0.00189   0.00000  -0.00141   0.00242  -0.01086
  17        5XY         0.02980   0.00000  -0.00004   0.01125   0.00251
  18        5XZ         0.00000   0.00103   0.00000   0.00000   0.00000
  19        5YZ         0.00000   0.00245   0.00000   0.00000   0.00000
  20 2   C  1S          0.04263   0.00000   0.09375   0.09295   0.06021
  21        2S         -0.05479   0.00000  -0.13396  -0.10720  -0.03364
  22        2PX         0.21825   0.00000  -0.11145  -0.08050   0.01148
  23        2PY        -0.18011   0.00000   0.01159  -0.00533  -0.09564
  24        2PZ         0.00000  -0.25214   0.00000   0.00000   0.00000
  25        3S         -0.78127   0.00000  -1.89308  -2.19467  -1.37827
  26        3PX         1.00889   0.00000  -0.66210  -0.33038   0.14596
  27        3PY        -0.82766   0.00000   0.00724  -0.19214  -0.73920
  28        3PZ         0.00000  -1.45139   0.00000   0.00000   0.00000
  29        4S         10.55006   0.00000  -4.73558 -12.22888 -17.02627
  30        4PX        -2.29808   0.00000   0.84777   2.88149   3.76712
  31        4PY         2.26860   0.00000  -1.20325  -1.95782  -2.55269
  32        4PZ         0.00000  -1.32156   0.00000   0.00000   0.00000
  33        5XX         0.00472   0.00000   0.00810  -0.01066   0.00865
  34        5YY         0.01435   0.00000  -0.00903   0.00138   0.01567
  35        5ZZ        -0.01518   0.00000   0.01032   0.01744  -0.00323
[...]
  80        3PX         0.00000  -0.00000   0.00000   0.00000  -0.00000
  81        3PY         0.00000   0.00000   0.00000   0.00000  -0.00000
  82        3PZ         0.00000   0.00000   0.00000   0.00000  -0.00000
  83 9   H  1S          0.00005   0.00005   0.00000   0.00000  -0.00000
  84        2S          0.00010   0.00018   0.00000   0.00001  -0.00000
  85        3PX         0.00000  -0.00000   0.00000   0.00000  -0.00000
  86        3PY         0.00000   0.00000   0.00000   0.00000  -0.00000
  87        3PZ         0.00000   0.00000   0.00000   0.00000  -0.00000
  88 10  H  1S         -0.00000  -0.00000  -0.00042  -0.00620   0.00001
  89        2S          0.00000   0.00000  -0.00613  -0.01651  -0.00006
  90        3PX         0.00000   0.00000   0.00004   0.00016   0.00000
  91        3PY         0.00000  -0.00000   0.00005   0.00013   0.00000
  92        3PZ        -0.00000  -0.00000   0.00000  -0.00006   0.00000
  93 11  H  1S         -0.00000  -0.00000  -0.00042  -0.00620   0.00001
  94        2S          0.00000   0.00000  -0.00613  -0.01651  -0.00006
  95        3PX         0.00000   0.00000   0.00004   0.00016   0.00000
  96        3PY         0.00000  -0.00000   0.00005   0.00013   0.00000
  97        3PZ        -0.00000  -0.00000   0.00000  -0.00006   0.00000
                          76        77        78        79        80
  76        3PY         0.00023
  77        3PZ         0.00000   0.00015
  78 8   H  1S         -0.00000  -0.00000   0.21807
  79        2S          0.00000   0.00000   0.10531   0.13151
  80        3PX         0.00000   0.00000   0.00000   0.00000   0.00014
  81        3PY         0.00000  -0.00000   0.00000   0.00000   0.00000
  82        3PZ        -0.00000  -0.00000   0.00000   0.00000   0.00000
  83 9   H  1S         -0.00000  -0.00000  -0.00043  -0.00658   0.00000
  84        2S          0.00000   0.00000  -0.00658  -0.01840  -0.00000
  85        3PX         0.00000   0.00000   0.00000  -0.00000   0.00000
  86        3PY         0.00000  -0.00000  -0.00000  -0.00000   0.00000
  87        3PZ        -0.00000  -0.00000   0.00010   0.00022   0.00000
  88 10  H  1S          0.00005   0.00005  -0.00000  -0.00002  -0.00000
  89        2S          0.00010   0.00018  -0.00002  -0.00042  -0.00000
  90        3PX         0.00000  -0.00000  -0.00000  -0.00000  -0.00000
  91        3PY         0.00000   0.00000   0.00000   0.00000   0.00000
  92        3PZ         0.00000   0.00000  -0.00000   0.00000  -0.00000
  93 11  H  1S          0.00005   0.00005  -0.00000   0.00026   0.00000
  94        2S          0.00010   0.00018   0.00026   0.00274   0.00000
  95        3PX         0.00000  -0.00000   0.00000   0.00000  -0.00000
  96        3PY         0.00000   0.00000   0.00000   0.00000  -0.00000
  97        3PZ         0.00000   0.00000   0.00000   0.00000  -0.00000
                          81        82        83        84        85
  81        3PY         0.00024
  82        3PZ         0.00000   0.00032
  83 9   H  1S         -0.00000   0.00010   0.21807
  84        2S         -0.00000   0.00022   0.10531   0.13151
  85        3PX         0.00000  -0.00000   0.00000   0.00000   0.00014
  86        3PY         0.00000  -0.00000   0.00000   0.00000   0.00000
  87        3PZ         0.00000   0.00001   0.00000   0.00000   0.00000
  88 10  H  1S         -0.00000  -0.00000  -0.00000   0.00026   0.00000
  89        2S         -0.00000   0.00000   0.00026   0.00274   0.00000
  90        3PX        -0.00000  -0.00000   0.00000   0.00000  -0.00000
  91        3PY         0.00000   0.00000   0.00000   0.00000  -0.00000
  92        3PZ        -0.00000  -0.00000   0.00000   0.00000  -0.00000
  93 11  H  1S         -0.00000  -0.00000  -0.00000  -0.00002  -0.00000
  94        2S         -0.00000  -0.00000  -0.00002  -0.00042  -0.00000
  95        3PX         0.00000   0.00000  -0.00000  -0.00000  -0.00000
  96        3PY        -0.00000   0.00000   0.00000   0.00000   0.00000
  97        3PZ         0.00000  -0.00000  -0.00000   0.00000  -0.00000
                          86        87        88        89        90
  86        3PY         0.00024
  87        3PZ         0.00000   0.00032
  88 10  H  1S         -0.00000  -0.00000   0.21807
  89        2S         -0.00000  -0.00000   0.10531   0.13152
  90        3PX         0.00000   0.00000   0.00000   0.00000   0.00014
  91        3PY        -0.00000   0.00000   0.00000   0.00000   0.00000
  92        3PZ         0.00000  -0.00000   0.00000   0.00000   0.00000
  93 11  H  1S         -0.00000  -0.00000  -0.00043  -0.00658   0.00000
  94        2S         -0.00000   0.00000  -0.00658  -0.01841  -0.00000
  95        3PX        -0.00000  -0.00000   0.00000  -0.00000   0.00000
  96        3PY         0.00000   0.00000  -0.00000  -0.00000   0.00000
  97        3PZ        -0.00000  -0.00000   0.00010   0.00022   0.00000
                          91        92        93        94        95
  91        3PY         0.00024
  92        3PZ         0.00000   0.00032
  93 11  H  1S         -0.00000   0.00010   0.21807
  94        2S         -0.00000   0.00022   0.10531   0.13152
  95        3PX         0.00000  -0.00000   0.00000   0.00000   0.00014
  96        3PY         0.00000   0.00000   0.00000   0.00000   0.00000
  97        3PZ        -0.00000   0.00001   0.00000   0.00000   0.00000
                          96        97
  96        3PY         0.00024
  97        3PZ        -0.00000   0.00032
     Gross orbital populations:
                           1
   1 1   C  1S          1.99217
   2        2S          0.68212
   3        2PX         0.68381
   4        2PY         0.69643
   5        2PZ         0.71415
   6        3S          0.61527
   7        3PX         0.21585
   8        3PY         0.27278
   9        3PZ         0.33302
  10        4S         -0.06271
  11        4PX        -0.02071
  12        4PY         0.00403
  13        4PZ         0.02587
  14        5XX        -0.00320
  15        5YY        -0.01040
  16        5ZZ        -0.00965
  17        5XY         0.00931
  18        5XZ         0.00325
  19        5YZ         0.01291
  20 2   C  1S          1.99202
  21        2S          0.68479
  22        2PX         0.69957
  23        2PY         0.70272
  24        2PZ         0.71017
  25        3S          0.64112
  26        3PX         0.27261
  27        3PY         0.31062
  28        3PZ         0.33331
  29        4S          0.07939
  30        4PX         0.02086
  31        4PY         0.02098
  32        4PZ         0.02787
  33        5XX        -0.00628
  34        5YY        -0.01254
  35        5ZZ        -0.01006
  36        5XY         0.00872
  37        5XZ         0.00160
  38        5YZ         0.01088
  39 3   C  1S          1.99202
  40        2S          0.68479
  41        2PX         0.69959
  42        2PY         0.70273
  43        2PZ         0.71017
  44        3S          0.64110
  45        3PX         0.27258
  46        3PY         0.31063
  47        3PZ         0.33332
  48        4S          0.07939
  49        4PX         0.02086
  50        4PY         0.02099
  51        4PZ         0.02788
  52        5XX        -0.00628
  53        5YY        -0.01254
  54        5ZZ        -0.01006
  55        5XY         0.00872
  56        5XZ         0.00160
  57        5YZ         0.01088
  58 4   H  1S          0.53691
  59        2S          0.31367
  60        3PX         0.00223
  61        3PY         0.00400
  62        3PZ         0.00533
  63 5   H  1S          0.53691
  64        2S          0.31367
  65        3PX         0.00223
  66        3PY         0.00400
  67        3PZ         0.00533
  68 6   H  1S          0.53324
  69        2S          0.31210
  70        3PX         0.00550
  71        3PY         0.00380
  72        3PZ         0.00241
  73 7   H  1S          0.53323
  74        2S          0.31211
  75        3PX         0.00550
  76        3PY         0.00380
  77        3PZ         0.00241
  78 8   H  1S          0.53283
  79        2S          0.31316
  80        3PX         0.00228
  81        3PY         0.00402
  82        3PZ         0.00536
  83 9   H  1S          0.53283
  84        2S          0.31316
  85        3PX         0.00228
  86        3PY         0.00402
  87        3PZ         0.00536
  88 10  H  1S          0.53282
  89        2S          0.31317
  90        3PX         0.00228
  91        3PY         0.00402
  92        3PZ         0.00536
  93 11  H  1S          0.53282
  94        2S          0.31317
  95        3PX         0.00228
  96        3PY         0.00402
  97        3PZ         0.00536
          Condensed to atoms (all electrons):
              1          2          3          4          5          6
     1  C    5.145848   0.267667   0.267674   0.397289   0.397289  -0.051951
     2  C    0.267667   5.122490  -0.056022  -0.038804  -0.038804   0.405599
     3  C    0.267674  -0.056022   5.122479  -0.038797  -0.038797   0.009384
     4  H    0.397289  -0.038804  -0.038797   0.584182  -0.034567  -0.003410
     5  H    0.397289  -0.038804  -0.038797  -0.034567   0.584182  -0.003410
     6  H   -0.051951   0.405599   0.009384  -0.003410  -0.003410   0.558129
     7  H   -0.051950   0.009386   0.405592  -0.003410  -0.003410  -0.000139
     8  H   -0.054391   0.410809  -0.002389  -0.005060   0.004889  -0.028587
     9  H   -0.054391   0.410809  -0.002389   0.004889  -0.005060  -0.028587
    10  H   -0.054388  -0.002394   0.410810   0.004888  -0.005059   0.000013
    11  H   -0.054388  -0.002394   0.410810  -0.005059   0.004888   0.000013
              7          8          9         10         11
     1  C   -0.051950  -0.054391  -0.054391  -0.054388  -0.054388
     2  C    0.009386   0.410809   0.410809  -0.002394  -0.002394
     3  C    0.405592  -0.002389  -0.002389   0.410810   0.410810
     4  H   -0.003410  -0.005060   0.004889   0.004888  -0.005059
     5  H   -0.003410   0.004889  -0.005060  -0.005059   0.004888
     6  H   -0.000139  -0.028587  -0.028587   0.000013   0.000013
     7  H    0.558147   0.000013   0.000013  -0.028592  -0.028592
     8  H    0.000013   0.560913  -0.031344  -0.000470   0.003266
     9  H    0.000013  -0.031344   0.560913   0.003266  -0.000470
    10  H   -0.028592  -0.000470   0.003266   0.560926  -0.031348
    11  H   -0.028592   0.003266  -0.000470  -0.031348   0.560926
 Mulliken atomic charges:
              1
     1  C   -0.154308
     2  C   -0.488343
     3  C   -0.488356
     4  H    0.137858
     5  H    0.137858
     6  H    0.142945
     7  H    0.142943
     8  H    0.142352
     9  H    0.142352
    10  H    0.142349
    11  H    0.142349
 Sum of Mulliken atomic charges =   0.00000
 Mulliken charges with hydrogens summed into heavy atoms:
              1
     1  C    0.121409
     2  C   -0.060694
     3  C   -0.060715
 Sum of Mulliken charges with hydrogens summed into heavy atoms =   0.00000
 Electronic spatial extent (au):  <R**2>=            229.0711
 Charge=             -0.0000 electrons
 Dipole moment (field-independent basis, Debye):
    X=             -0.0000    Y=              0.0866    Z=             -0.0000  Tot=              0.0866
 Quadrupole moment (field-independent basis, Debye-Ang):
   XX=            -22.5535   YY=            -22.2057   ZZ=            -21.7153
   XY=              0.0005   XZ=             -0.0000   YZ=             -0.0000
 Traceless Quadrupole moment (field-independent basis, Debye-Ang):
   XX=             -0.3953   YY=             -0.0476   ZZ=              0.4429
   XY=              0.0005   XZ=             -0.0000   YZ=             -0.0000
 Octapole moment (field-independent basis, Debye-Ang**2):
  XXX=             -0.0009  YYY=              0.4004  ZZZ=             -0.0000  XYY=             -0.0000
  XXY=              1.4717  XXZ=              0.0000  XZZ=              0.0002  YZZ=             -0.4100
  YYZ=             -0.0000  XYZ=             -0.0000
 Hexadecapole moment (field-independent basis, Debye-Ang**3):
 XXXX=           -211.9005 YYYY=            -75.1999 ZZZZ=            -46.2318 XXXY=              0.0061
 XXXZ=              0.0000 YYYX=              0.0045 YYYZ=             -0.0000 ZZZX=              0.0000
 ZZZY=             -0.0000 XXYY=            -47.2720 XXZZ=            -43.8633 YYZZ=            -18.3183
 XXYZ=             -0.0000 YYXZ=              0.0000 ZZXY=              0.0015
 N-N= 8.223503642337D+01 E-N=-4.389448496110D+02  KE= 1.178844918864D+02
 Symmetry A'   KE= 1.120401739246D+02
 Symmetry A"   KE= 5.844317961798D+00
 Orbital energies and kinetic energies (alpha):
                                 1                 2
   1         O               -10.184411         15.886153
   2         O               -10.175780         15.884337
   3         O               -10.175769         15.883024
   4         O                -0.779864          1.326625
   5         O                -0.681277          1.348358
   6         O                -0.585401          1.277925
   7         O                -0.456414          0.867688
   8         O                -0.436089          0.958772
   9         O                -0.398440          1.050663
  10         O                -0.381331          1.004712
  11         O                -0.338959          1.253237
  12         O                -0.337632          1.150992
  13         O                -0.328847          1.049759
  14         V                 0.015051          0.383009
  15         V                 0.030205          0.301489
  16         V                 0.034976          0.294713
  17         V                 0.045578          0.301413
  18         V                 0.069687          0.315130
  19         V                 0.077121          0.271959
  20         V                 0.082572          0.239712
  21         V                 0.085661          0.288788
  22         V                 0.093093          0.318115
  23         V                 0.113440          0.347630
  24         V                 0.123400          0.414688
  25         V                 0.149219          0.364949
  26         V                 0.196047          0.884464
  27         V                 0.200778          0.874481
  28         V                 0.201786          0.864619
  29         V                 0.246848          0.879620
  30         V                 0.250142          1.157108
  31         V                 0.252997          1.339696
  32         V                 0.280258          1.393159
  33         V                 0.310203          1.277348
  34         V                 0.332919          1.086824
  35         V                 0.346535          1.166793
  36         V                 0.604403          1.961622
  37         V                 0.627162          1.748167
  38         V                 0.641415          1.802334
  39         V                 0.647366          1.759197
  40         V                 0.669633          1.970913
  41         V                 0.695224          2.502545
  42         V                 0.706151          2.230166
  43         V                 0.725465          2.578821
  44         V                 0.806362          2.092678
  45         V                 0.917958          2.309992
  46         V                 0.934790          2.235619
  47         V                 0.955928          2.313708
  48         V                 0.964495          2.199303
  49         V                 1.005418          2.248365
  50         V                 1.027492          2.216574
  51         V                 1.090741          2.546652
  52         V                 1.100750          2.310602
  53         V                 1.110666          2.595655
  54         V                 1.304480          2.333561
  55         V                 1.318073          2.352161
  56         V                 1.388299          2.328671
  57         V                 1.536865          2.536015
  58         V                 1.565718          2.474236
  59         V                 1.662870          2.627259
  60         V                 1.691000          2.644143
  61         V                 1.861070          3.264374
  62         V                 1.874808          2.932964
  63         V                 1.944341          3.301364
  64         V                 2.049532          2.849633
  65         V                 2.049608          2.854527
  66         V                 2.096737          3.202871
  67         V                 2.120223          3.167075
  68         V                 2.121464          3.222488
  69         V                 2.122657          3.277258
  70         V                 2.130293          3.292210
  71         V                 2.256298          3.079893
  72         V                 2.279160          3.469670
  73         V                 2.291720          3.113935
  74         V                 2.328346          3.352201
  75         V                 2.421104          3.362242
  76         V                 2.473670          3.401691
  77         V                 2.535480          3.583708
  78         V                 2.646737          3.684310
  79         V                 2.696417          3.561860
  80         V                 2.725146          3.690247
  81         V                 2.756261          3.884085
  82         V                 2.820558          3.831131
  83         V                 2.866968          3.888341
  84         V                 2.901938          3.956367
  85         V                 2.911948          4.007409
  86         V                 2.912905          3.993416
  87         V                 3.218007          4.824802
  88         V                 3.259169          4.886506
  89         V                 3.336993          4.953998
  90         V                 3.350020          4.911255
  91         V                 3.444437          5.030643
  92         V                 3.479058          5.066959
  93         V                 3.504426          5.126294
  94         V                 3.569023          5.175551
  95         V                 4.318287         10.012531
  96         V                 4.502881         10.141370
  97         V                 4.643066         10.255257
 Total kinetic energy from orbitals= 1.178844918864D+02
 No NMR shielding tensors so no spin-rotation constants.
 Leave Link  601 at Tue Aug 13 00:54:10 2024, MaxMem=   33554432 cpu:       0.3
 (Enter /programs/64bit/g09/g09-gfortran/bin/l9999.exe)
 B after Tr=     0.871198   -0.000000    0.590289
         Rot=    0.333731   -0.333731    0.623397   -0.623397 Ang= 141.01 deg.
 Atom   3 needs variable   1=   1.5331401509 but is    1.5332462709
 Input z-matrix variables are not compatible with final structure.
 1\1\GINC-MOLMOD\FOpt\RB3LYP\6-31+G(d,p)\C3H8\OSPITE\13-Aug-2024\0\\#p 
 B3LYP/6-31+g(d,p) opt pop=full gfinput\\propane\\0,1\C,-0.0652793732,0
 .,-0.0321518247\C,-0.0676762445,0.,1.5010925727\C,1.3469246701,0.,-0.6
 28975469\H,-0.6150455256,-0.8775557895,-0.3971864014\H,-0.6150455256,0
 .8775557895,-0.3971864014\H,-1.0872356588,0.,1.9018480025\H,1.32101579
 61,0.,-1.7241862797\H,0.4462737404,-0.8844040476,1.8966883015\H,0.4462
 737404,0.8844040476,1.8966883015\H,1.9109878889,0.8843842142,-0.308752
 6611\H,1.9109878889,-0.8843842142,-0.3087526611\\Version=EM64L-G09RevA
 .02\State=1-A'\HF=-119.1591518\RMSD=4.482e-09\RMSF=4.359e-05\Dipole=-0
 .0283737,0.,-0.018866\Quadrupole=-0.1141715,0.3292782,-0.2151067,0.,0.
 1190197,0.\PG=CS [SG(C3H2),X(H6)]\\@


 ALL PAPERS THAT YOU SAVE WILL NEVER BE NEEDED UNTIL
 SUCH TIME AS THEY ARE DISPOSED OF, WHEN THEY BECOME
 ESSENTIAL.

           -- JOHN CORCORAN IN
              PAUL DICKSON'S "THE OFFICIAL RULES"
 Job cpu time:  0 days  0 hours  5 minutes 13.1 seconds.
 File lengths (MBytes):  RWF=     10 Int=      0 D2E=      0 Chk=      2 Scr=      1
 Normal termination of Gaussian 09 at Tue Aug 13 00:54:10 2024.
