 Entering Gaussian System, Link 0=/programs/64bit/g09/g09-gfortran/bin/g09
 Input=c3h8_scan.com
 Output=c3h8_scan.log
 Initial command:
 /programs/64bit/g09/g09-gfortran/bin/l1.exe /home/ospite/QM/c3h8/Gau-7944.inp -scrdir=/home/ospite/QM/c3h8/
 Entering Link 1 = /programs/64bit/g09/g09-gfortran/bin/l1.exe PID=      7945.
  
 Copyright (c) 1988,1990,1992,1993,1995,1998,2003,2009, Gaussian, Inc.
                  All Rights Reserved.
  
 This is part of the Gaussian(R) 09 program.  It is based on
 the Gaussian(R) 03 system (copyright 2003, Gaussian, Inc.),
 the Gaussian(R) 98 system (copyright 1998, Gaussian, Inc.),
 the Gaussian(R) 94 system (copyright 1995, Gaussian, Inc.),
 the Gaussian 92(TM) system (copyright 1992, Gaussian, Inc.),
 the Gaussian 90(TM) system (copyright 1990, Gaussian, Inc.),
 the Gaussian 88(TM) system (copyright 1988, Gaussian, Inc.),
 the Gaussian 86(TM) system (copyright 1986, Carnegie Mellon
 University), and the Gaussian 82(TM) system (copyright 1983,
 Carnegie Mellon University). Gaussian is a federally registered
 trademark of Gaussian, Inc.
  
 This software contains proprietary and confidential information,
 including trade secrets, belonging to Gaussian, Inc.
  
 This software is provided under written license and may be
 used, copied, transmitted, or stored only in accord with that
 written license.
  
 The following legend is applicable only to US Government
 contracts under FAR:
  
                    RESTRICTED RIGHTS LEGEND
  
 Use, reproduction and disclosure by the US Government is
 subject to restrictions as set forth in subparagraphs (a)
 and (c) of the Commercial Computer Software - Restricted
 Rights clause in FAR 52.227-19.
  
 Gaussian, Inc.
 340 Quinnipiac St., Bldg. 40, Wallingford CT 06492
  
  
 ---------------------------------------------------------------
 Warning -- This program may not be used in any manner that
 competes with the business of Gaussian, Inc. or will provide
 assistance to any competitor of Gaussian, Inc.  The licensee
 of this program is prohibited from giving any competitor of
 Gaussian, Inc. access to this program.  By using this program,
 the user acknowledges that Gaussian, Inc. is engaged in the
 business of creating and licensing software in the field of
 computational chemistry and represents and warrants to the
 licensee that it is not a competitor of Gaussian, Inc. and that
 it will not use this program in any manner prohibited above.
 ---------------------------------------------------------------
  

 Cite this work as:
 Gaussian 09, Revision A.02,
 M. J. Frisch, G. W. Trucks, H. B. Schlegel, G. E. Scuseria, 
 M. A. Robb, J. R. Cheeseman, G. Scalmani, V. Barone, B. Mennucci, 
 G. A. Petersson, H. Nakatsuji, M. Caricato, X. Li, H. P. Hratchian, 
 A. F. Izmaylov, J. Bloino, G. Zheng, J. L. Sonnenberg, M. Hada, 
 M. Ehara, K. Toyota, R. Fukuda, J. Hasegawa, M. Ishida, T. Nakajima, 
 Y. Honda, O. Kitao, H. Nakai, T. Vreven, J. A. Montgomery, Jr., 
 J. E. Peralta, F. Ogliaro, M. Bearpark, J. J. Heyd, E. Brothers, 
 K. N. Kudin, V. N. Staroverov, R. Kobayashi, J. Normand, 
 K. Raghavachari, A. Rendell, J. C. Burant, S. S. Iyengar, J. Tomasi, 
 M. Cossi, N. Rega, J. M. Millam, M. Klene, J. E. Knox, J. B. Cross, 
 V. Bakken, C. Adamo, J. Jaramillo, R. Gomperts, R. E. Stratmann, 
 O. Yazyev, A. J. Austin, R. Cammi, C. Pomelli, J. W. Ochterski, 
 R. L. Martin, K. Morokuma, V. G. Zakrzewski, G. A. Voth, 
 P. Salvador, J. J. Dannenberg, S. Dapprich, A. D. Daniels, 
 O. Farkas, J. B. Foresman, J. V. Ortiz, J. Cioslowski, 
 and D. J. Fox, Gaussian, Inc., Wallingford CT, 2009.
 
 ******************************************
 Gaussian 09:  EM64L-G09RevA.02 11-Jun-2009
                13-Aug-2024 
 ******************************************
 ------------------------
 #p scan pop=full gfinput
 ------------------------
 1/38=1,60=1/1,8;
 2/12=2,17=6,18=5,29=3,40=1/2;
 3/11=9,16=1,24=10,25=1,30=1/1,2,3;
 4//1;
 5/5=2,38=5/2;
 6/7=3,18=1,28=1/1;
 1/60=1/8(1);
 99/9=1/99;
 2/29=3/2;
 3/11=9,16=1,25=1,30=1/1,2,3;
 4/5=5,16=3/1;
 5/5=2,38=5/2;
 1/60=1/8(-4);
 99/9=1/99;
 Leave Link    1 at Tue Aug 13 01:14:17 2024, MaxMem=          0 cpu:       0.1
 (Enter /programs/64bit/g09/g09-gfortran/bin/l101.exe)
 -------
 propane
 -------
 Symbolic Z-matrix:
 Charge =  0 Multiplicity = 1
 C1
 C2                   1    dCC
 C3                   1    dCC      2    aCC
 H4                   1    d1       2    a1       3    t1       0
 H5                   1    d1       2    a1       4    t2       0
 H6                   2    d2       1    a2       3    t3       0
 H7                   3    d2       1    a2       2    t3       0
 H8                   2    d3       1    a3       6    t4       0
 H9                   2    d3       1    a3       6    t5       0
 H10                  3    d3       1    a3       7    t4       0
 H11                  3    d3       1    a3       7    t5       0
       Variables:
  dCC                   1.526                    
  aCC                 112.4                      
  d1                    1.096                    
  a1                  109.56                     
  t1                  126.95   Scan 19   20.     
  t2                  106.1                      
  d2                    1.089                    
  a2                  111.8                      
  t3                  180.                       
  d3                    1.094                    
  a3                  110.6                      
  t4                  107.3                      
  t5                 -107.3                      
 
 NAtoms=     11 NQM=     11 NQMF=      0 NMic=      0 NMicF=      0 NTot=     11.
                    Isotopes and Nuclear Properties:
 (Nuclear quadrupole moments (NQMom) in fm**2, nuclear magnetic moments (NMagM)
  in nuclear magnetons)

  Atom         1           2           3           4           5           6           7           8           9          10
 IAtWgt=          12          12          12           1           1           1           1           1           1           1
 AtmWgt=  12.0000000  12.0000000  12.0000000   1.0078250   1.0078250   1.0078250   1.0078250   1.0078250   1.0078250   1.0078250
 NucSpn=           0           0           0           1           1           1           1           1           1           1
 AtZEff=   0.0000000   0.0000000   0.0000000   0.0000000   0.0000000   0.0000000   0.0000000   0.0000000   0.0000000   0.0000000
 NQMom=    0.0000000   0.0000000   0.0000000   0.0000000   0.0000000   0.0000000   0.0000000   0.0000000   0.0000000   0.0000000
 NMagM=    0.0000000   0.0000000   0.0000000   2.7928460   2.7928460   2.7928460   2.7928460   2.7928460   2.7928460   2.7928460

  Atom        11
 IAtWgt=           1
 AtmWgt=   1.0078250
 NucSpn=           1
 AtZEff=   0.0000000
 NQMom=    0.0000000
 NMagM=    2.7928460
 Leave Link  101 at Tue Aug 13 01:14:18 2024, MaxMem=   33554432 cpu:       0.1
 (Enter /programs/64bit/g09/g09-gfortran/bin/l108.exe)
 Scan the potential surface.
 Variable   Value     No. Steps Step-Size
 -------- ----------- --------- ---------
     5     126.950000      19     20.0000
 A total of     20 points will be computed.
 Leave Link  108 at Tue Aug 13 01:14:18 2024, MaxMem=   33554432 cpu:       0.0
 (Enter /programs/64bit/g09/g09-gfortran/bin/l202.exe)
 ---------------------------------------------------------------------------------------------------
                            Z-MATRIX (ANGSTROMS AND DEGREES)
   CD    Cent   Atom    N1       Length/X        N2       Alpha/Y        N3        Beta/Z          J
 ---------------------------------------------------------------------------------------------------
      1      1  C 
      2      2  C        1   1.526000(     1)
      3      3  C        1   1.526000(     2)      2  112.400(    11)
      4      4  H        1   1.096000(     3)      2  109.560(    12)      3  126.950(    20)      0
      5      5  H        1   1.096000(     4)      2  109.560(    13)      4  106.100(    21)      0
      6      6  H        2   1.089000(     5)      1  111.800(    14)      3  180.000(    22)      0
      7      7  H        3   1.089000(     6)      1  111.800(    15)      2  180.000(    23)      0
      8      8  H        2   1.094000(     7)      1  110.600(    16)      6  107.300(    24)      0
      9      9  H        2   1.094000(     8)      1  110.600(    17)      6 -107.300(    25)      0
     10     10  H        3   1.094000(     9)      1  110.600(    18)      7  107.300(    26)      0
     11     11  H        3   1.094000(    10)      1  110.600(    19)      7 -107.300(    27)      0
 ---------------------------------------------------------------------------------------------------
                         Z-Matrix orientation:                         
 ---------------------------------------------------------------------
 Center     Atomic      Atomic             Coordinates (Angstroms)
 Number     Number       Type             X           Y           Z
 ---------------------------------------------------------------------
      1          6           0        0.000000    0.000000    0.000000
      2          6           0        0.000000    0.000000    1.526000
      3          6           0        1.410857    0.000000   -0.581513
      4          1           0       -0.620805   -0.825334   -0.366934
      5          1           0       -0.620805    0.825334   -0.366934
      6          1           0       -1.011121    0.000000    1.930420
      7          1           0        1.399453   -0.000000   -1.670454
      8          1           0        0.304526   -0.977722    1.910915
      9          1           0        0.304526    0.977722    1.910915
     10          1           0        1.882775    0.977722   -0.446644
     11          1           0        1.882775   -0.977722   -0.446644
 ---------------------------------------------------------------------
                    Distance matrix (angstroms):
                    1          2          3          4          5
     1  C    0.000000
     2  C    1.526000   0.000000
     3  C    1.526000   2.536165   0.000000
     4  H    1.096000   2.156334   2.203378   0.000000
     5  H    1.096000   2.156334   2.203378   1.650668   0.000000
     6  H    2.179194   1.089000   3.489382   2.472116   2.472116
     7  H    2.179194   3.489382   1.089000   2.542004   2.542004
     8  H    2.168011   1.094000   2.896913   2.463342   3.048909
     9  H    2.168011   1.094000   2.896913   3.048909   2.463342
    10  H    2.168011   2.896913   1.094000   3.086305   2.509480
    11  H    2.168011   2.896913   1.094000   2.509480   3.086305
                    6          7          8          9         10
     6  H    0.000000
     7  H    4.333262   0.000000
     8  H    1.639283   3.870530   0.000000
     9  H    1.639283   3.870530   1.955444   0.000000
    10  H    3.870530   1.639283   3.445680   2.837067   0.000000
    11  H    3.870530   1.639283   2.837067   3.445680   1.955444
                   11
    11  H    0.000000
 Stoichiometry    C3H8
 Framework group  CS[SG(C3H2),X(H6)]
 Deg. of freedom    16
 Full point group                 CS      NOp   2
 Largest Abelian subgroup         CS      NOp   2
 Largest concise Abelian subgroup CS      NOp   2
                         Standard orientation:                         
 ---------------------------------------------------------------------
 Center     Atomic      Atomic             Coordinates (Angstroms)
 Number     Number       Type             X           Y           Z
 ---------------------------------------------------------------------
      1          6           0       -0.000000    0.556876    0.000000
      2          6           0        1.263321   -0.299100    0.000000
      3          6           0       -1.272804   -0.284935    0.000000
      4          1           0        0.044456    1.276642    0.825334
      5          1           0        0.044456    1.276642   -0.825334
      6          1           0        2.165292    0.311120    0.000000
      7          1           0       -2.167902    0.335323    0.000000
      8          1           0        1.411161   -0.767117    0.977722
      9          1           0        1.411161   -0.767117   -0.977722
     10          1           0       -1.425862   -0.751270   -0.977722
     11          1           0       -1.425862   -0.751270    0.977722
 ---------------------------------------------------------------------
 Rotational constants (GHZ):     30.0560353      8.2313508      7.4585858
 Leave Link  202 at Tue Aug 13 01:14:18 2024, MaxMem=   33554432 cpu:       0.0
 (Enter /programs/64bit/g09/g09-gfortran/bin/l301.exe)
 Standard basis: STO-3G (5D, 7F)
 Ernie: Thresh=  0.10000D-02 Tol=  0.10000D-05 Strict=F.
 AO basis set in the form of general basis input (Overlap normalization):
      1 0
 S   3 1.00       0.000000000000
      0.7161683735D+02  0.1543289673D+00
      0.1304509632D+02  0.5353281423D+00
      0.3530512160D+01  0.4446345422D+00
 SP   3 1.00       0.000000000000
      0.2941249355D+01 -0.9996722919D-01  0.1559162750D+00
      0.6834830964D+00  0.3995128261D+00  0.6076837186D+00
      0.2222899159D+00  0.7001154689D+00  0.3919573931D+00
 ****
      2 0
 S   3 1.00       0.000000000000
      0.7161683735D+02  0.1543289673D+00
      0.1304509632D+02  0.5353281423D+00
      0.3530512160D+01  0.4446345422D+00
 SP   3 1.00       0.000000000000
      0.2941249355D+01 -0.9996722919D-01  0.1559162750D+00
      0.6834830964D+00  0.3995128261D+00  0.6076837186D+00
      0.2222899159D+00  0.7001154689D+00  0.3919573931D+00
 ****
      3 0
 S   3 1.00       0.000000000000
      0.7161683735D+02  0.1543289673D+00
      0.1304509632D+02  0.5353281423D+00
      0.3530512160D+01  0.4446345422D+00
 SP   3 1.00       0.000000000000
      0.2941249355D+01 -0.9996722919D-01  0.1559162750D+00
      0.6834830964D+00  0.3995128261D+00  0.6076837186D+00
      0.2222899159D+00  0.7001154689D+00  0.3919573931D+00
 ****
      4 0
 S   3 1.00       0.000000000000
      0.3425250914D+01  0.1543289673D+00
      0.6239137298D+00  0.5353281423D+00
      0.1688554040D+00  0.4446345422D+00
 ****
      5 0
 S   3 1.00       0.000000000000
      0.3425250914D+01  0.1543289673D+00
      0.6239137298D+00  0.5353281423D+00
      0.1688554040D+00  0.4446345422D+00
 ****
      6 0
 S   3 1.00       0.000000000000
      0.3425250914D+01  0.1543289673D+00
      0.6239137298D+00  0.5353281423D+00
      0.1688554040D+00  0.4446345422D+00
 ****
      7 0
 S   3 1.00       0.000000000000
      0.3425250914D+01  0.1543289673D+00
      0.6239137298D+00  0.5353281423D+00
      0.1688554040D+00  0.4446345422D+00
 ****
      8 0
 S   3 1.00       0.000000000000
      0.3425250914D+01  0.1543289673D+00
      0.6239137298D+00  0.5353281423D+00
      0.1688554040D+00  0.4446345422D+00
 ****
      9 0
 S   3 1.00       0.000000000000
      0.3425250914D+01  0.1543289673D+00
      0.6239137298D+00  0.5353281423D+00
      0.1688554040D+00  0.4446345422D+00
 ****
     10 0
 S   3 1.00       0.000000000000
      0.3425250914D+01  0.1543289673D+00
      0.6239137298D+00  0.5353281423D+00
      0.1688554040D+00  0.4446345422D+00
 ****
     11 0
 S   3 1.00       0.000000000000
      0.3425250914D+01  0.1543289673D+00
      0.6239137298D+00  0.5353281423D+00
      0.1688554040D+00  0.4446345422D+00
 ****

 There are    17 symmetry adapted basis functions of A'  symmetry.
 There are     6 symmetry adapted basis functions of A"  symmetry.
 Integral buffers will be    131072 words long.
 Raffenetti 1 integral format.
 Two-electron integral symmetry is turned on.
    23 basis functions,    69 primitive gaussians,    23 cartesian basis functions
    13 alpha electrons       13 beta electrons
       nuclear repulsion energy        82.4042194782 Hartrees.
 IExCor=    0 DFT=F Ex=HF Corr=None ExCW=0 ScaHFX=  1.000000
 ScaDFX=  1.000000  1.000000  1.000000  1.000000 ScalE2=  1.000000  1.000000
 IRadAn=      0 IRanWt=     -1 IRanGd=            0 ICorTp=0
 NAtoms=   11 NActive=   11 NUniq=    8 SFac= 1.42D+00 NAtFMM=   80 NAOKFM=F Big=F
 Leave Link  301 at Tue Aug 13 01:14:18 2024, MaxMem=   33554432 cpu:       0.1
 (Enter /programs/64bit/g09/g09-gfortran/bin/l302.exe)
 NPDir=0 NMtPBC=     1 NCelOv=     1 NCel=       1 NClECP=     1 NCelD=      1
         NCelK=      1 NCelE2=     1 NClLst=     1 CellRange=     0.0.
 One-electron integrals computed using PRISM.
 One-electron integral symmetry used in STVInt
 NBasis=    23 RedAO= T  NBF=    17     6
 NBsUse=    23 1.00D-06 NBFU=    17     6
 Leave Link  302 at Tue Aug 13 01:14:18 2024, MaxMem=   33554432 cpu:       0.1
 (Enter /programs/64bit/g09/g09-gfortran/bin/l303.exe)
 DipDrv:  MaxL=1.
 Leave Link  303 at Tue Aug 13 01:14:18 2024, MaxMem=   33554432 cpu:       0.0
 (Enter /programs/64bit/g09/g09-gfortran/bin/l401.exe)
 Harris functional with IExCor=  205 diagonalized for initial guess.
 ExpMin= 1.69D-01 ExpMax= 7.16D+01 ExpMxC= 7.16D+01 IAcc=1 IRadAn=         1 AccDes= 0.00D+00
 HarFok:  IExCor=  205 AccDes= 0.00D+00 IRadAn=         1 IDoV= 1
 ScaDFX=  1.000000  1.000000  1.000000  1.000000
 FoFCou: FMM=F IPFlag=           0 FMFlag=      100000 FMFlg1=           0
         NFxFlg=           0 DoJE=T BraDBF=F KetDBF=T FulRan=T
         Omega=  0.000000  0.000000  1.000000  0.000000  0.000000 ICntrl=     500 IOpCl=  0
         NMat0=    1 NMatS0=    1 NMatT0=    0 NMatD0=    1 NMtDS0=    0 NMtDT0=    0
         I1Cent=           4 NGrid=           0.
 Petite list used in FoFCou.
 Harris En= -117.179455235409    
 Initial guess orbital symmetries:
       Occupied  (A') (A') (A') (A') (A') (A') (A") (A') (A") (A')
                 (A') (A') (A")
       Virtual   (A') (A') (A") (A') (A') (A') (A") (A') (A') (A")
 The electronic state of the initial guess is 1-A'.
 Leave Link  401 at Tue Aug 13 01:14:19 2024, MaxMem=   33554432 cpu:       0.6
 (Enter /programs/64bit/g09/g09-gfortran/bin/l502.exe)
 Closed shell SCF:
 Requested convergence on RMS density matrix=1.00D-08 within 128 cycles.
 Requested convergence on MAX density matrix=1.00D-06.
 Requested convergence on             energy=1.00D-06.
 No special actions if energy rises.
 Using DIIS extrapolation, IDIIS=  1040.
 Integral symmetry usage will be decided dynamically.
 Keep R1 ints in memory in canonical form, NReq=858345.
 IEnd=       20105 IEndB=       20105 NGot=    33554432 MDV=    33513266
 LenX=    33513266 LenY=    33512296
 Symmetry not used in FoFDir.
 MinBra= 0 MaxBra= 1 Meth= 1.
 IRaf=       0 NMat=   1 IRICut=       1 DoRegI=T DoRafI=F ISym2E= 0 JSym2E=0.

 Cycle   1  Pass 1  IDiag  1:
 E= -116.722500830302    
 DIIS: error= 5.68D-02 at cycle   1 NSaved=   1.
 NSaved= 1 IEnMin= 1 EnMin= -116.722500830302     IErMin= 1 ErrMin= 5.68D-02
 ErrMax= 5.68D-02 EMaxC= 1.00D-01 BMatC= 1.13D-01 BMatP= 1.13D-01
 IDIUse=3 WtCom= 4.32D-01 WtEn= 5.68D-01
 Coeff-Com:  0.100D+01
 Coeff-En:   0.100D+01
 Coeff:      0.100D+01
 Gap=     1.009 Goal=   None    Shift=    0.000
 GapD=    1.009 DampG=2.000 DampE=0.500 DampFc=1.0000 IDamp=-1.
 RMSDP=2.09D-02 MaxDP=1.19D-01              OVMax= 0.00D+00

 Cycle   2  Pass 1  IDiag  1:
 E= -116.840067850754     Delta-E=       -0.117567020452 Rises=F Damp=F
 DIIS: error= 1.05D-02 at cycle   2 NSaved=   2.
 NSaved= 2 IEnMin= 2 EnMin= -116.840067850754     IErMin= 2 ErrMin= 1.05D-02
 ErrMax= 1.05D-02 EMaxC= 1.00D-01 BMatC= 4.30D-03 BMatP= 1.13D-01
 IDIUse=3 WtCom= 8.95D-01 WtEn= 1.05D-01
 Coeff-Com:  0.123D+00 0.877D+00
 Coeff-En:   0.000D+00 0.100D+01
 Coeff:      0.110D+00 0.890D+00
 Gap=     1.005 Goal=   None    Shift=    0.000
 RMSDP=3.92D-03 MaxDP=2.50D-02 DE=-1.18D-01 OVMax= 0.00D+00

 Cycle   3  Pass 1  IDiag  1:
 E= -116.844961413305     Delta-E=       -0.004893562551 Rises=F Damp=F
 DIIS: error= 1.00D-03 at cycle   3 NSaved=   3.
 NSaved= 3 IEnMin= 3 EnMin= -116.844961413305     IErMin= 3 ErrMin= 1.00D-03
 ErrMax= 1.00D-03 EMaxC= 1.00D-01 BMatC= 3.14D-05 BMatP= 4.30D-03
 IDIUse=3 WtCom= 9.90D-01 WtEn= 1.00D-02
 Coeff-Com: -0.124D-01 0.105D-01 0.100D+01
 Coeff-En:   0.000D+00 0.000D+00 0.100D+01
 Coeff:     -0.122D-01 0.104D-01 0.100D+01
 Gap=     0.990 Goal=   None    Shift=    0.000
 RMSDP=3.51D-04 MaxDP=2.10D-03 DE=-4.89D-03 OVMax= 0.00D+00

 Cycle   4  Pass 1  IDiag  1:
 E= -116.845010168984     Delta-E=       -0.000048755679 Rises=F Damp=F
 DIIS: error= 1.54D-04 at cycle   4 NSaved=   4.
 NSaved= 4 IEnMin= 4 EnMin= -116.845010168984     IErMin= 4 ErrMin= 1.54D-04
 ErrMax= 1.54D-04 EMaxC= 1.00D-01 BMatC= 6.40D-07 BMatP= 3.14D-05
 IDIUse=3 WtCom= 9.98D-01 WtEn= 1.54D-03
 Coeff-Com:  0.259D-02-0.793D-02-0.263D+00 0.127D+01
 Coeff-En:   0.000D+00 0.000D+00 0.000D+00 0.100D+01
 Coeff:      0.259D-02-0.792D-02-0.262D+00 0.127D+01
 Gap=     0.990 Goal=   None    Shift=    0.000
 RMSDP=7.38D-05 MaxDP=5.01D-04 DE=-4.88D-05 OVMax= 0.00D+00

 Cycle   5  Pass 1  IDiag  1:
 E= -116.845011483236     Delta-E=       -0.000001314252 Rises=F Damp=F
 DIIS: error= 1.99D-05 at cycle   5 NSaved=   5.
 NSaved= 5 IEnMin= 5 EnMin= -116.845011483236     IErMin= 5 ErrMin= 1.99D-05
 ErrMax= 1.99D-05 EMaxC= 1.00D-01 BMatC= 9.29D-09 BMatP= 6.40D-07
 IDIUse=1 WtCom= 1.00D+00 WtEn= 0.00D+00
 Coeff-Com:  0.380D-03-0.996D-03-0.350D-01 0.112D+00 0.923D+00
 Coeff:      0.380D-03-0.996D-03-0.350D-01 0.112D+00 0.923D+00
 Gap=     0.990 Goal=   None    Shift=    0.000
 RMSDP=6.69D-06 MaxDP=6.01D-05 DE=-1.31D-06 OVMax= 0.00D+00

 Cycle   6  Pass 1  IDiag  1:
 E= -116.845011498882     Delta-E=       -0.000000015646 Rises=F Damp=F
 DIIS: error= 4.05D-06 at cycle   6 NSaved=   6.
 NSaved= 6 IEnMin= 6 EnMin= -116.845011498882     IErMin= 6 ErrMin= 4.05D-06
 ErrMax= 4.05D-06 EMaxC= 1.00D-01 BMatC= 5.55D-10 BMatP= 9.29D-09
 IDIUse=1 WtCom= 1.00D+00 WtEn= 0.00D+00
 Coeff-Com: -0.206D-03 0.536D-03 0.205D-01-0.857D-01-0.193D+00 0.126D+01
 Coeff:     -0.206D-03 0.536D-03 0.205D-01-0.857D-01-0.193D+00 0.126D+01
 Gap=     0.990 Goal=   None    Shift=    0.000
 RMSDP=2.24D-06 MaxDP=1.68D-05 DE=-1.56D-08 OVMax= 0.00D+00

 Cycle   7  Pass 1  IDiag  1:
 E= -116.845011500125     Delta-E=       -0.000000001243 Rises=F Damp=F
 DIIS: error= 3.97D-07 at cycle   7 NSaved=   7.
 NSaved= 7 IEnMin= 7 EnMin= -116.845011500125     IErMin= 7 ErrMin= 3.97D-07
 ErrMax= 3.97D-07 EMaxC= 1.00D-01 BMatC= 4.28D-12 BMatP= 5.55D-10
 IDIUse=1 WtCom= 1.00D+00 WtEn= 0.00D+00
 Coeff-Com:  0.495D-04-0.123D-03-0.492D-02 0.208D-01 0.417D-01-0.328D+00
 Coeff-Com:  0.127D+01
 Coeff:      0.495D-04-0.123D-03-0.492D-02 0.208D-01 0.417D-01-0.328D+00
 Coeff:      0.127D+01
 Gap=     0.990 Goal=   None    Shift=    0.000
 RMSDP=2.13D-07 MaxDP=1.60D-06 DE=-1.24D-09 OVMax= 0.00D+00

 Cycle   8  Pass 1  IDiag  1:
 E= -116.845011500136     Delta-E=       -0.000000000010 Rises=F Damp=F
 DIIS: error= 3.15D-08 at cycle   8 NSaved=   8.
 NSaved= 8 IEnMin= 8 EnMin= -116.845011500136     IErMin= 8 ErrMin= 3.15D-08
 ErrMax= 3.15D-08 EMaxC= 1.00D-01 BMatC= 3.65D-14 BMatP= 4.28D-12
 IDIUse=1 WtCom= 1.00D+00 WtEn= 0.00D+00
 Coeff-Com:  0.297D-05-0.808D-05-0.298D-03 0.124D-02 0.277D-02-0.187D-01
 Coeff-Com:  0.446D-02 0.101D+01
 Coeff:      0.297D-05-0.808D-05-0.298D-03 0.124D-02 0.277D-02-0.187D-01
 Coeff:      0.446D-02 0.101D+01
 Gap=     0.990 Goal=   None    Shift=    0.000
 RMSDP=1.55D-08 MaxDP=1.26D-07 DE=-1.01D-11 OVMax= 0.00D+00

 Cycle   9  Pass 1  IDiag  1:
 E= -116.845011500136     Delta-E=       -0.000000000000 Rises=F Damp=F
 DIIS: error= 5.77D-09 at cycle   9 NSaved=   9.
 NSaved= 9 IEnMin= 9 EnMin= -116.845011500136     IErMin= 9 ErrMin= 5.77D-09
 ErrMax= 5.77D-09 EMaxC= 1.00D-01 BMatC= 1.08D-15 BMatP= 3.65D-14
 IDIUse=1 WtCom= 1.00D+00 WtEn= 0.00D+00
 Coeff-Com: -0.117D-05 0.289D-05 0.117D-03-0.493D-03-0.979D-03 0.776D-02
 Coeff-Com: -0.305D-01 0.560D-02 0.102D+01
 Coeff:     -0.117D-05 0.289D-05 0.117D-03-0.493D-03-0.979D-03 0.776D-02
 Coeff:     -0.305D-01 0.560D-02 0.102D+01
 Gap=     0.990 Goal=   None    Shift=    0.000
 RMSDP=2.40D-09 MaxDP=1.25D-08 DE=-2.84D-14 OVMax= 0.00D+00

 SCF Done:  E(RHF) =  -116.845011500     A.U. after    9 cycles
             Convg  =    0.2401D-08             -V/T =  2.0078
 KE= 1.159392817299D+02 PE=-4.359733257485D+02 EE= 1.207848130403D+02
 Leave Link  502 at Tue Aug 13 01:14:19 2024, MaxMem=   33554432 cpu:       0.1
 (Enter /programs/64bit/g09/g09-gfortran/bin/l601.exe)
 Copying SCF densities to generalized density rwf, IOpCl= 0 IROHF=0.

 **********************************************************************

            Population analysis using the SCF density.

 **********************************************************************

 Orbital symmetries:
       Occupied  (A') (A') (A') (A') (A') (A') (A") (A') (A") (A')
                 (A") (A') (A')
       Virtual   (A') (A') (A") (A') (A') (A') (A") (A') (A') (A")
 The electronic state is 1-A'.
 Alpha  occ. eigenvalues --  -11.03784 -11.02973 -11.02631  -1.01153  -0.89291
 Alpha  occ. eigenvalues --   -0.76716  -0.60479  -0.56176  -0.53580  -0.48206
 Alpha  occ. eigenvalues --   -0.43364  -0.43166  -0.41701
 Alpha virt. eigenvalues --    0.57329   0.61630   0.62479   0.70821   0.72117
 Alpha virt. eigenvalues --    0.72835   0.78579   0.80478   0.82882   0.86076
     Molecular Orbital Coefficients:
                           1         2         3         4         5
                           O         O         O         O         O
     Eigenvalues --   -11.03784 -11.02973 -11.02631  -1.01153  -0.89291
   1 1   C  1S          0.99170   0.01807   0.01296  -0.16366   0.00146
   2        2S          0.03759  -0.00499  -0.00532   0.44280  -0.00441
   3        2PX         0.00029   0.00367  -0.00355   0.00333  -0.16086
   4        2PY         0.00073   0.00220   0.00229  -0.03863  -0.00247
   5        2PZ         0.00000   0.00000   0.00000   0.00000   0.00000
   6 2   C  1S         -0.01173  -0.01267   0.99180  -0.12295   0.15459
   7        2S         -0.00624  -0.00055   0.03761   0.33210  -0.44311
   8        2PX         0.00350   0.00019   0.00121  -0.04638  -0.04147
   9        2PY        -0.00247   0.00009   0.00109   0.04156  -0.01899
  10        2PZ         0.00000   0.00000   0.00000   0.00000   0.00000
  11 3   C  1S         -0.01724   0.99173   0.01255  -0.12226  -0.15855
  12        2S         -0.00635   0.03756   0.00044   0.33133   0.45523
  13        2PX        -0.00347  -0.00119  -0.00020   0.04651  -0.04371
  14        2PY        -0.00243   0.00110   0.00013   0.04006   0.01764
  15        2PZ         0.00000   0.00000   0.00000   0.00000   0.00000
  16 4   H  1S         -0.00697  -0.00002   0.00000   0.10126  -0.00397
  17 5   H  1S         -0.00697  -0.00002   0.00000   0.10126  -0.00397
  18 6   H  1S          0.00022  -0.00004  -0.00713   0.07518  -0.14618
  19 7   H  1S          0.00022  -0.00712  -0.00022   0.07466   0.14973
  20 8   H  1S          0.00010   0.00010  -0.00677   0.07662  -0.12942
  21 9   H  1S          0.00010   0.00010  -0.00677   0.07662  -0.12942
  22 10  H  1S          0.00012  -0.00676  -0.00007   0.07664   0.13370
  23 11  H  1S          0.00012  -0.00676  -0.00007   0.07664   0.13370
                           6         7         8         9        10
                           O         O         O         O         O
     Eigenvalues --    -0.76716  -0.60479  -0.56176  -0.53580  -0.48206
   1 1   C  1S         -0.14517   0.00000   0.02751   0.00000  -0.00334
   2        2S          0.45025   0.00000  -0.10347   0.00000   0.01294
   3        2PX         0.00540   0.00000   0.01754   0.00000  -0.40016
   4        2PY         0.16235   0.00000   0.38404   0.00000   0.00061
   5        2PZ         0.00000   0.32334   0.00000  -0.00670   0.00000
   6 2   C  1S          0.09419   0.00000   0.00676   0.00000  -0.00342
   7        2S         -0.28971   0.00000  -0.03123   0.00000   0.00997
   8        2PX        -0.13338   0.00000   0.32971   0.00000   0.10465
   9        2PY         0.09002   0.00000   0.12168   0.00000  -0.37957
  10        2PZ         0.00000   0.31684   0.00000  -0.39843   0.00000
  11 3   C  1S          0.08831   0.00000   0.00582   0.00000   0.00392
  12        2S         -0.27094   0.00000  -0.02737   0.00000  -0.01184
  13        2PX         0.13018   0.00000  -0.34276   0.00000   0.09843
  14        2PY         0.08643   0.00000   0.11230   0.00000   0.42276
  15        2PZ         0.00000   0.31984   0.00000   0.40327   0.00000
  16 4   H  1S          0.20913   0.19780   0.15960  -0.00703  -0.00602
  17 5   H  1S          0.20913  -0.19780   0.15960   0.00703  -0.00602
  18 6   H  1S         -0.12584   0.00000   0.27380   0.00000  -0.12986
  19 7   H  1S         -0.11879   0.00000   0.27819   0.00000   0.16195
  20 8   H  1S         -0.13602   0.21483  -0.03409  -0.29426   0.19298
  21 9   H  1S         -0.13602  -0.21483  -0.03409   0.29426   0.19298
  22 10  H  1S         -0.12885  -0.21733  -0.02614  -0.29828  -0.21433
  23 11  H  1S         -0.12885   0.21733  -0.02614   0.29828  -0.21433
                          11        12        13        14        15
                           O         O         O         V         V
     Eigenvalues --    -0.43364  -0.43166  -0.41701   0.57329   0.61630
   1 1   C  1S          0.00000  -0.00312  -0.02021   0.01619  -0.01113
   2        2S          0.00000   0.01242   0.08576  -0.08217   0.06702
   3        2PX         0.00000  -0.35578   0.04819  -0.03019  -0.39398
   4        2PY         0.00000  -0.02178  -0.36248   0.33292   0.01031
   5        2PZ         0.48419   0.00000   0.00000   0.00000   0.00000
   6 2   C  1S          0.00000   0.03189  -0.01304   0.00790  -0.09650
   7        2S          0.00000  -0.12473   0.05396  -0.06235   0.57546
   8        2PX         0.00000   0.41343  -0.08206  -0.00141  -0.39497
   9        2PY         0.00000   0.13897   0.40487   0.64770  -0.45108
  10        2PZ        -0.22670   0.00000   0.00000   0.00000   0.00000
  11 3   C  1S          0.00000  -0.03278  -0.00556   0.02081   0.09434
  12        2S          0.00000   0.12881   0.02336  -0.13722  -0.55872
  13        2PX         0.00000   0.41169  -0.00341  -0.05010  -0.41551
  14        2PY         0.00000  -0.06679   0.38206   0.67142   0.35779
  15        2PZ        -0.21524   0.00000   0.00000   0.00000   0.00000
  16 4   H  1S          0.40091  -0.01711  -0.21254  -0.20759  -0.02278
  17 5   H  1S         -0.40091  -0.01711  -0.21254  -0.20759  -0.02278
  18 6   H  1S          0.00000   0.38901   0.20979  -0.45206   0.41746
  19 7   H  1S          0.00000  -0.33922   0.26125  -0.49237  -0.37578
  20 8   H  1S         -0.21338  -0.09115  -0.20744   0.40794  -0.51571
  21 9   H  1S          0.21338  -0.09115  -0.20744   0.40794  -0.51571
  22 10  H  1S          0.20266   0.05205  -0.20103   0.45754   0.45556
  23 11  H  1S         -0.20266   0.05205  -0.20103   0.45754   0.45556
                          16        17        18        19        20
                           V         V         V         V         V
     Eigenvalues --     0.62479   0.70821   0.72117   0.72835   0.78579
   1 1   C  1S          0.00000   0.07132  -0.00975  -0.21350   0.00000
   2        2S          0.00000  -0.45095   0.09658   1.29665   0.00000
   3        2PX         0.00000   0.76112   0.38635   0.20639   0.00000
   4        2PY         0.00000  -0.23330   0.59379  -0.43629   0.00000
   5        2PZ         0.83836   0.00000   0.00000   0.00000   0.00903
   6 2   C  1S          0.00000   0.03404  -0.14843   0.07170   0.00000
   7        2S          0.00000  -0.19841   0.94830  -0.41806   0.00000
   8        2PX         0.00000   0.27596   0.38541   0.80007   0.00000
   9        2PY         0.00000  -0.37487  -0.21122  -0.25703   0.00000
  10        2PZ         0.34823   0.00000   0.00000   0.00000   0.84173
  11 3   C  1S          0.00000   0.05289  -0.13312   0.08342   0.00000
  12        2S          0.00000  -0.36608   0.82874  -0.50535   0.00000
  13        2PX         0.00000   0.69003   0.14077  -0.48895   0.00000
  14        2PY         0.00000   0.52463   0.17425  -0.06676   0.00000
  15        2PZ         0.37767   0.00000   0.00000   0.00000  -0.80557
  16 4   H  1S         -0.72750   0.28993  -0.33568  -0.31726  -0.01225
  17 5   H  1S          0.72750   0.28993  -0.33568  -0.31726   0.01225
  18 6   H  1S          0.00000   0.07252  -0.54595  -0.25310   0.00000
  19 7   H  1S          0.00000   0.35520  -0.32328  -0.09072   0.00000
  20 8   H  1S         -0.32688  -0.12195  -0.50161   0.02218  -0.64204
  21 9   H  1S          0.32688  -0.12195  -0.50161   0.02218   0.64204
  22 10  H  1S          0.35535   0.43263  -0.24119   0.16138  -0.61418
  23 11  H  1S         -0.35535   0.43263  -0.24119   0.16138   0.61418
                          21        22        23
                           V         V         V
     Eigenvalues --     0.80478   0.82882   0.86076
   1 1   C  1S          0.02320  -0.11135   0.00000
   2        2S         -0.15114   0.72430   0.00000
   3        2PX         0.49717   0.24450   0.00000
   4        2PY        -0.21704   0.75311   0.00000
   5        2PZ         0.00000   0.00000  -0.69331
   6 2   C  1S          0.11891   0.10681   0.00000
   7        2S         -0.76736  -0.68676   0.00000
   8        2PX        -0.17024  -0.44254   0.00000
   9        2PY        -0.30779  -0.30184   0.00000
  10        2PZ         0.00000   0.00000   0.74805
  11 3   C  1S         -0.16146   0.02133   0.00000
  12        2S          1.04128  -0.13430   0.00000
  13        2PX        -0.46448   0.34844   0.00000
  14        2PY         0.41120  -0.05349   0.00000
  15        2PZ         0.00000   0.00000   0.77315
  16 4   H  1S          0.16188  -0.66621   0.42874
  17 5   H  1S          0.16188  -0.66621  -0.42874
  18 6   H  1S          0.54717   0.70239   0.00000
  19 7   H  1S         -0.90399   0.31557   0.00000
  20 8   H  1S          0.18839   0.18704  -0.50615
  21 9   H  1S          0.18839   0.18704   0.50615
  22 10  H  1S         -0.27927   0.06490   0.52230
  23 11  H  1S         -0.27927   0.06490  -0.52230
     Density Matrix:
                           1         2         3         4         5
   1 1   C  1S          2.06602
   2        2S         -0.21076   0.83734
   3        2PX         0.00140  -0.00531   0.63056
   4        2PY         0.00299  -0.03015  -0.00417   0.61444
   5        2PZ         0.00000   0.00000   0.00000   0.00000   0.67807
   6 2   C  1S          0.01604  -0.03966  -0.07766   0.05704   0.00000
   7        2S         -0.04050   0.04915   0.22624  -0.17505   0.00000
   8        2PX         0.07894  -0.22990  -0.36269   0.25534   0.00000
   9        2PY        -0.05267   0.15573   0.25553  -0.18046   0.00000
  10        2PZ         0.00000   0.00000   0.00000   0.00000  -0.00930
  11 3   C  1S          0.01661  -0.04156   0.07818   0.05323   0.00000
  12        2S         -0.04287   0.05713  -0.22780  -0.15925   0.00000
  13        2PX        -0.08203   0.24167  -0.36830  -0.23973   0.00000
  14        2PY        -0.05460   0.16454  -0.25452  -0.16241   0.00000
  15        2PZ         0.00000   0.00000   0.00000   0.00000  -0.00701
  16 4   H  1S         -0.09019   0.20745   0.00631   0.33750   0.51624
  17 5   H  1S         -0.09019   0.20745   0.00631   0.33750  -0.51624
  18 6   H  1S          0.01678  -0.05972  -0.09683  -0.00488   0.00000
  19 7   H  1S          0.01644  -0.05908   0.09770  -0.00586   0.00000
  20 8   H  1S          0.01985  -0.07921  -0.07005   0.07894  -0.06376
  21 9   H  1S          0.01985  -0.07921  -0.07005   0.07894   0.06376
  22 10  H  1S          0.02050  -0.08259   0.07026   0.07468   0.05971
  23 11  H  1S          0.02050  -0.08259   0.07026   0.07468  -0.05971
                           6         7         8         9        10
   6 2   C  1S          2.06620
   7        2S         -0.20833   0.82314
   8        2PX         0.00801  -0.04723   0.63799
   9        2PY         0.00563  -0.01376   0.02295   0.70462
  10        2PZ         0.00000   0.00000   0.00000   0.00000   0.62105
  11 3   C  1S         -0.00404   0.01550  -0.02031  -0.00312   0.00000
  12        2S          0.01562  -0.05444   0.08590   0.01856   0.00000
  13        2PX         0.02032  -0.08547   0.10011  -0.01749   0.00000
  14        2PY        -0.00342   0.02025   0.01635   0.01544   0.00000
  15        2PZ         0.00000   0.00000   0.00000   0.00000  -0.02108
  16 4   H  1S          0.02009  -0.07908   0.05982  -0.08720  -0.05082
  17 5   H  1S          0.02009  -0.07908   0.05982  -0.08720   0.05082
  18 6   H  1S         -0.07761   0.15776   0.47930   0.43234   0.00000
  19 7   H  1S         -0.02050   0.08439  -0.09368   0.04115   0.00000
  20 8   H  1S         -0.10009   0.25022   0.01649  -0.36133   0.46736
  21 9   H  1S         -0.10009   0.25022   0.01649  -0.36133  -0.46736
  22 10  H  1S          0.00791  -0.03025   0.03011  -0.01387   0.00808
  23 11  H  1S          0.00791  -0.03025   0.03011  -0.01387  -0.00808
                          11        12        13        14        15
  11 3   C  1S          2.06603
  12        2S         -0.20761   0.81980
  13        2PX        -0.00694   0.04277   0.63541
  14        2PY         0.00689  -0.01962  -0.02666   0.70232
  15        2PZ         0.00000   0.00000   0.00000   0.00000   0.62252
  16 4   H  1S          0.01894  -0.07268  -0.05897  -0.08521  -0.05173
  17 5   H  1S          0.01894  -0.07268  -0.05897  -0.08521   0.05173
  18 6   H  1S         -0.02019   0.08301   0.09263   0.03915   0.00000
  19 7   H  1S         -0.07700   0.15538  -0.47697   0.43507   0.00000
  20 8   H  1S          0.00770  -0.02923  -0.02925  -0.01277  -0.00805
  21 9   H  1S          0.00770  -0.02923  -0.02925  -0.01277   0.00805
  22 10  H  1S         -0.10047   0.25234  -0.01813  -0.35909  -0.46684
  23 11  H  1S         -0.10047   0.25234  -0.01813  -0.35909   0.46684
                          16        17        18        19        20
  16 4   H  1S          0.64987
  17 5   H  1S         -0.14974   0.64987
  18 6   H  1S         -0.04978  -0.04978   0.66015
  19 7   H  1S         -0.04835  -0.04835  -0.04667   0.65820
  20 8   H  1S         -0.04421   0.11971  -0.14305   0.00199   0.61837
  21 9   H  1S          0.11971  -0.04421  -0.14305   0.00199  -0.09472
  22 10  H  1S          0.11918  -0.04224   0.00236  -0.14213   0.00084
  23 11  H  1S         -0.04224   0.11918   0.00236  -0.14213   0.00949
                          21        22        23
  21 9   H  1S          0.61837
  22 10  H  1S          0.00949   0.61482
  23 11  H  1S          0.00084  -0.09426   0.61482
    Full Mulliken population analysis:
                           1         2         3         4         5
   1 1   C  1S          2.06602
   2        2S         -0.05234   0.83734
   3        2PX         0.00000   0.00000   0.63056
   4        2PY         0.00000   0.00000   0.00000   0.61444
   5        2PZ         0.00000   0.00000   0.00000   0.00000   0.67807
   6 2   C  1S          0.00000  -0.00109  -0.00296  -0.00148   0.00000
   7        2S         -0.00112   0.01498   0.06398   0.03354   0.00000
   8        2PX        -0.00301   0.06501   0.05934   0.05750   0.00000
   9        2PY        -0.00136   0.02984   0.05754  -0.00292   0.00000
  10        2PZ         0.00000   0.00000   0.00000   0.00000  -0.00157
  11 3   C  1S          0.00000  -0.00114  -0.00301  -0.00135   0.00000
  12        2S         -0.00118   0.01741   0.06490   0.03001   0.00000
  13        2PX        -0.00315   0.06886   0.06210   0.05349   0.00000
  14        2PY        -0.00139   0.03100   0.05679  -0.00344   0.00000
  15        2PZ         0.00000   0.00000   0.00000   0.00000  -0.00118
  16 4   H  1S         -0.00554   0.10109   0.00012   0.10311   0.18085
  17 5   H  1S         -0.00554   0.10109   0.00012   0.10311   0.18085
  18 6   H  1S          0.00009  -0.00557  -0.01163   0.00007   0.00000
  19 7   H  1S          0.00008  -0.00551  -0.01175   0.00007   0.00000
  20 8   H  1S          0.00010  -0.00754  -0.00561  -0.00593  -0.00354
  21 9   H  1S          0.00010  -0.00754  -0.00561  -0.00593  -0.00354
  22 10  H  1S          0.00011  -0.00786  -0.00569  -0.00555  -0.00331
  23 11  H  1S          0.00011  -0.00786  -0.00569  -0.00555  -0.00331
                           6         7         8         9        10
   6 2   C  1S          2.06620
   7        2S         -0.05174   0.82314
   8        2PX         0.00000   0.00000   0.63799
   9        2PY         0.00000   0.00000   0.00000   0.70462
  10        2PZ         0.00000   0.00000   0.00000   0.00000   0.62105
  11 3   C  1S         -0.00000   0.00002   0.00006  -0.00000   0.00000
  12        2S          0.00002  -0.00257  -0.00615   0.00001   0.00000
  13        2PX         0.00006  -0.00612  -0.00996  -0.00001   0.00000
  14        2PY         0.00000  -0.00001   0.00001   0.00030   0.00000
  15        2PZ         0.00000   0.00000   0.00000   0.00000  -0.00041
  16 4   H  1S          0.00011  -0.00769  -0.00424  -0.00799  -0.00244
  17 5   H  1S          0.00011  -0.00769  -0.00424  -0.00799  -0.00244
  18 6   H  1S         -0.00484   0.07751   0.18564   0.11328   0.00000
  19 7   H  1S         -0.00000   0.00045   0.00082   0.00007   0.00000
  20 8   H  1S         -0.00618   0.12222   0.00104   0.07202   0.19460
  21 9   H  1S         -0.00618   0.12222   0.00104   0.07202   0.19460
  22 10  H  1S          0.00000  -0.00066  -0.00092   0.00007  -0.00009
  23 11  H  1S          0.00000  -0.00066  -0.00092   0.00007  -0.00009
                          11        12        13        14        15
  11 3   C  1S          2.06603
  12        2S         -0.05156   0.81980
  13        2PX         0.00000   0.00000   0.63541
  14        2PY         0.00000   0.00000   0.00000   0.70232
  15        2PZ         0.00000   0.00000   0.00000   0.00000   0.62252
  16 4   H  1S          0.00009  -0.00648  -0.00410  -0.00702  -0.00225
  17 5   H  1S          0.00009  -0.00648  -0.00410  -0.00702  -0.00225
  18 6   H  1S         -0.00000   0.00044   0.00082   0.00006   0.00000
  19 7   H  1S         -0.00481   0.07634   0.18333   0.11588   0.00000
  20 8   H  1S          0.00000  -0.00064  -0.00089   0.00007  -0.00009
  21 9   H  1S          0.00000  -0.00064  -0.00089   0.00007  -0.00009
  22 10  H  1S         -0.00620   0.12326   0.00118   0.07131   0.19438
  23 11  H  1S         -0.00620   0.12326   0.00118   0.07131   0.19438
                          16        17        18        19        20
  16 4   H  1S          0.64987
  17 5   H  1S         -0.03085   0.64987
  18 6   H  1S         -0.00260  -0.00260   0.66015
  19 7   H  1S         -0.00221  -0.00221  -0.00003   0.65820
  20 8   H  1S         -0.00234   0.00197  -0.02997   0.00000   0.61837
  21 9   H  1S          0.00197  -0.00234  -0.02997   0.00000  -0.01214
  22 10  H  1S          0.00181  -0.00205   0.00001  -0.02978   0.00001
  23 11  H  1S         -0.00205   0.00181   0.00001  -0.02978   0.00024
                          21        22        23
  21 9   H  1S          0.61837
  22 10  H  1S          0.00024   0.61482
  23 11  H  1S          0.00001  -0.01208   0.61482
     Gross orbital populations:
                           1
   1 1   C  1S          1.99198
   2        2S          1.17019
   3        2PX         0.94348
   4        2PY         0.96319
   5        2PZ         1.02331
   6 2   C  1S          1.99203
   7        2S          1.17982
   8        2PX         0.97900
   9        2PY         1.02956
  10        2PZ         1.00322
  11 3   C  1S          1.99202
  12        2S          1.17975
  13        2PX         0.97720
  14        2PY         1.03024
  15        2PZ         1.00501
  16 4   H  1S          0.95121
  17 5   H  1S          0.95121
  18 6   H  1S          0.95085
  19 7   H  1S          0.94916
  20 8   H  1S          0.93577
  21 9   H  1S          0.93577
  22 10  H  1S          0.93302
  23 11  H  1S          0.93302
          Condensed to atoms (all electrons):
              1          2          3          4          5          6
     1  C    4.721729   0.366217   0.368708   0.379632   0.379632  -0.017047
     2  C    0.366217   4.749508  -0.024760  -0.022247  -0.022247   0.371591
     3  C    0.368708  -0.024760   4.742948  -0.019763  -0.019763   0.001316
     4  H    0.379632  -0.022247  -0.019763   0.649866  -0.030848  -0.002597
     5  H    0.379632  -0.022247  -0.019763  -0.030848   0.649866  -0.002597
     6  H   -0.017047   0.371591   0.001316  -0.002597  -0.002597   0.660154
     7  H   -0.017102   0.001338   0.370739  -0.002212  -0.002212  -0.000034
     8  H   -0.022517   0.383700  -0.001540  -0.002344   0.001971  -0.029975
     9  H   -0.022517   0.383700  -0.001540   0.001971  -0.002344  -0.029975
    10  H   -0.022298  -0.001589   0.383938   0.001811  -0.002055   0.000006
    11  H   -0.022298  -0.001589   0.383938  -0.002055   0.001811   0.000006
              7          8          9         10         11
     1  C   -0.017102  -0.022517  -0.022517  -0.022298  -0.022298
     2  C    0.001338   0.383700   0.383700  -0.001589  -0.001589
     3  C    0.370739  -0.001540  -0.001540   0.383938   0.383938
     4  H   -0.002212  -0.002344   0.001971   0.001811  -0.002055
     5  H   -0.002212   0.001971  -0.002344  -0.002055   0.001811
     6  H   -0.000034  -0.029975  -0.029975   0.000006   0.000006
     7  H    0.658195   0.000005   0.000005  -0.029782  -0.029782
     8  H    0.000005   0.618369  -0.012143   0.000006   0.000243
     9  H    0.000005  -0.012143   0.618369   0.000243   0.000006
    10  H   -0.029782   0.000006   0.000243   0.614825  -0.012084
    11  H   -0.029782   0.000243   0.000006  -0.012084   0.614825
 Mulliken atomic charges:
              1
     1  C   -0.092139
     2  C   -0.183624
     3  C   -0.184220
     4  H    0.048787
     5  H    0.048787
     6  H    0.049153
     7  H    0.050843
     8  H    0.064226
     9  H    0.064226
    10  H    0.066981
    11  H    0.066981
 Sum of Mulliken atomic charges =  -0.00000
 Mulliken charges with hydrogens summed into heavy atoms:
              1
     1  C    0.005435
     2  C   -0.006019
     3  C    0.000584
 Sum of Mulliken charges with hydrogens summed into heavy atoms =  -0.00000
 Electronic spatial extent (au):  <R**2>=            226.0206
 Charge=             -0.0000 electrons
 Dipole moment (field-independent basis, Debye):
    X=             -0.0203    Y=              0.1229    Z=             -0.0000  Tot=              0.1246
 Quadrupole moment (field-independent basis, Debye-Ang):
   XX=            -20.3635   YY=            -21.0526   ZZ=            -19.6313
   XY=              0.0825   XZ=             -0.0000   YZ=             -0.0000
 Traceless Quadrupole moment (field-independent basis, Debye-Ang):
   XX=             -0.0144   YY=             -0.7035   ZZ=              0.7178
   XY=              0.0825   XZ=             -0.0000   YZ=             -0.0000
 Octapole moment (field-independent basis, Debye-Ang**2):
  XXX=             -0.1524  YYY=              1.3247  ZZZ=              0.0000  XYY=              0.0587
  XXY=              0.2321  XXZ=              0.0000  XZZ=             -0.0082  YZZ=             -0.8130
  YYZ=             -0.0000  XYZ=              0.0000
 Hexadecapole moment (field-independent basis, Debye-Ang**3):
 XXXX=           -188.9015 YYYY=            -58.6608 ZZZZ=            -37.8008 XXXY=              0.1878
 XXXZ=             -0.0000 YYYX=              0.3112 YYYZ=             -0.0000 ZZZX=             -0.0000
 ZZZY=              0.0000 XXYY=            -42.2824 XXZZ=            -36.4654 YYZZ=            -14.8066
 XXYZ=             -0.0000 YYXZ=             -0.0000 ZZXY=              0.1446
 N-N= 8.240421947824D+01 E-N=-4.359733257698D+02  KE= 1.159392817299D+02
 Symmetry A'   KE= 1.101304732815D+02
 Symmetry A"   KE= 5.808808448375D+00
 Orbital energies and kinetic energies (alpha):
                                 1                 2
   1         O               -11.037843         15.630220
   2         O               -11.029735         15.631791
   3         O               -11.026313         15.631586
   4         O                -1.011526          1.242171
   5         O                -0.892910          1.245746
   6         O                -0.767165          1.212744
   7         O                -0.604793          0.847320
   8         O                -0.561762          0.973030
   9         O                -0.535801          0.970678
  10         O                -0.482061          1.112100
  11         O                -0.433640          1.086406
  12         O                -0.431656          1.220645
  13         O                -0.417005          1.165202
  14         V                 0.573286          1.916045
  15         V                 0.616296          2.188621
  16         V                 0.624793          1.937708
  17         V                 0.708206          2.465837
  18         V                 0.721171          2.592072
  19         V                 0.728355          3.139405
  20         V                 0.785787          2.264420
  21         V                 0.804776          2.732619
  22         V                 0.828818          2.576895
  23         V                 0.860757          2.469461
 Total kinetic energy from orbitals= 1.159392817299D+02
 No NMR shielding tensors so no spin-rotation constants.
 Leave Link  601 at Tue Aug 13 01:14:19 2024, MaxMem=   33554432 cpu:       0.1
 (Enter /programs/64bit/g09/g09-gfortran/bin/l108.exe)
 Variable Step   Value    
 -------- ---- -----------
     5       1    2.564761
 Leave Link  108 at Tue Aug 13 01:14:19 2024, MaxMem=   33554432 cpu:       0.0
 (Enter /programs/64bit/g09/g09-gfortran/bin/l202.exe)
 ---------------------------------------------------------------------------------------------------
                            Z-MATRIX (ANGSTROMS AND DEGREES)
   CD    Cent   Atom    N1       Length/X        N2       Alpha/Y        N3        Beta/Z          J
 ---------------------------------------------------------------------------------------------------
      1      1  C 
      2      2  C        1   1.526000(     1)
      3      3  C        1   1.526000(     2)      2  112.400(    11)
      4      4  H        1   1.096000(     3)      2  109.560(    12)      3  146.950(    20)      0
      5      5  H        1   1.096000(     4)      2  109.560(    13)      4  106.100(    21)      0
      6      6  H        2   1.089000(     5)      1  111.800(    14)      3  180.000(    22)      0
      7      7  H        3   1.089000(     6)      1  111.800(    15)      2  180.000(    23)      0
      8      8  H        2   1.094000(     7)      1  110.600(    16)      6  107.300(    24)      0
      9      9  H        2   1.094000(     8)      1  110.600(    17)      6 -107.300(    25)      0
     10     10  H        3   1.094000(     9)      1  110.600(    18)      7  107.300(    26)      0
     11     11  H        3   1.094000(    10)      1  110.600(    19)      7 -107.300(    27)      0
 ---------------------------------------------------------------------------------------------------
                         Z-Matrix orientation:                         
 ---------------------------------------------------------------------
 Center     Atomic      Atomic             Coordinates (Angstroms)
 Number     Number       Type             X           Y           Z
 ---------------------------------------------------------------------
      1          6           0        0.000000    0.000000    0.000000
      2          6           0        0.000000    0.000000    1.526000
      3          6           0        1.410857    0.000000   -0.581513
      4          1           0       -0.865647   -0.563232   -0.366934
      5          1           0       -0.301085    0.987888   -0.366934
      6          1           0       -1.011121    0.000000    1.930420
      7          1           0        1.399453   -0.000000   -1.670454
      8          1           0        0.304526   -0.977722    1.910915
      9          1           0        0.304526    0.977722    1.910915
     10          1           0        1.882775    0.977722   -0.446644
     11          1           0        1.882775   -0.977722   -0.446644
 ---------------------------------------------------------------------
                    Distance matrix (angstroms):
                    1          2          3          4          5
     1  C    0.000000
     2  C    1.526000   0.000000
     3  C    1.526000   2.536165   0.000000
     4  H    1.096000   2.156334   2.354941   0.000000
     5  H    1.096000   2.156334   1.988144   1.650668   0.000000
     6  H    2.179194   1.089000   3.489382   2.369858   2.599598
     7  H    2.179194   3.489382   1.089000   2.673401   2.359432
     8  H    2.168011   1.094000   2.896913   2.594167   3.069036
     9  H    2.168011   1.094000   2.896913   2.988719   2.357003
    10  H    2.168011   2.896913   1.094000   3.151938   2.185338
    11  H    2.168011   2.896913   1.094000   2.780643   2.939255
                    6          7          8          9         10
     6  H    0.000000
     7  H    4.333262   0.000000
     8  H    1.639283   3.870530   0.000000
     9  H    1.639283   3.870530   1.955444   0.000000
    10  H    3.870530   1.639283   3.445680   2.837067   0.000000
    11  H    3.870530   1.639283   2.837067   3.445680   1.955444
                   11
    11  H    0.000000
 Stoichiometry    C3H8
 Framework group  C1[X(C3H8)]
 Deg. of freedom    27
 Full point group                 C1      NOp   1
 Omega: Change in point group or standard orientation.

 Old FWG=CS   [SG(C3H2),X(H6)]
 New FWG=C01  [X(C3H8)]
 Largest Abelian subgroup         C1      NOp   1
 Largest concise Abelian subgroup C1      NOp   1
                         Standard orientation:                         
 ---------------------------------------------------------------------
 Center     Atomic      Atomic             Coordinates (Angstroms)
 Number     Number       Type             X           Y           Z
 ---------------------------------------------------------------------
      1          6           0       -0.001022    0.557853   -0.042907
      2          6           0       -1.265401   -0.295097    0.007105
      3          6           0        1.270670   -0.285078   -0.012222
      4          1           0       -0.185815    1.452778   -0.648032
      5          1           0        0.141773    1.059183    0.921195
      6          1           0       -2.166567    0.315902   -0.015291
      7          1           0        2.166535    0.333020   -0.048312
      8          1           0       -1.421093   -0.808843   -0.946132
      9          1           0       -1.406575   -0.715841    1.007045
     10          1           0        1.430388   -0.704633    0.985425
     11          1           0        1.415870   -0.797635   -0.967752
 ---------------------------------------------------------------------
 Rotational constants (GHZ):     30.2773917      8.2355069      7.4580303
 Leave Link  202 at Tue Aug 13 01:14:19 2024, MaxMem=   33554432 cpu:       0.0
 (Enter /programs/64bit/g09/g09-gfortran/bin/l301.exe)
 Standard basis: STO-3G (5D, 7F)
 Ernie: Thresh=  0.10000D-02 Tol=  0.10000D-05 Strict=F.
 There are    23 symmetry adapted basis functions of A   symmetry.
 Integral buffers will be    131072 words long.
 Raffenetti 1 integral format.
 Two-electron integral symmetry is turned on.
    23 basis functions,    69 primitive gaussians,    23 cartesian basis functions
    13 alpha electrons       13 beta electrons
       nuclear repulsion energy        82.4890312076 Hartrees.
 IExCor=    0 DFT=F Ex=HF Corr=None ExCW=0 ScaHFX=  1.000000
 ScaDFX=  1.000000  1.000000  1.000000  1.000000 ScalE2=  1.000000  1.000000
 IRadAn=      0 IRanWt=     -1 IRanGd=            0 ICorTp=0
 NAtoms=   11 NActive=   11 NUniq=   11 SFac= 7.50D-01 NAtFMM=   80 NAOKFM=F Big=F
 Leave Link  301 at Tue Aug 13 01:14:19 2024, MaxMem=   33554432 cpu:       0.1
 (Enter /programs/64bit/g09/g09-gfortran/bin/l302.exe)
 NPDir=0 NMtPBC=     1 NCelOv=     1 NCel=       1 NClECP=     1 NCelD=      1
         NCelK=      1 NCelE2=     1 NClLst=     1 CellRange=     0.0.
 One-electron integrals computed using PRISM.
 NBasis=    23 RedAO= T  NBF=    23
 NBsUse=    23 1.00D-06 NBFU=    23
 Leave Link  302 at Tue Aug 13 01:14:20 2024, MaxMem=   33554432 cpu:       0.1
 (Enter /programs/64bit/g09/g09-gfortran/bin/l303.exe)
 DipDrv:  MaxL=1.
 Leave Link  303 at Tue Aug 13 01:14:20 2024, MaxMem=   33554432 cpu:       0.0
 (Enter /programs/64bit/g09/g09-gfortran/bin/l401.exe)
 Initial guess read from the read-write file.
 B after Tr=     0.000000    0.000000    0.000000
         Rot=    1.000000    0.000000    0.000000    0.000000 Ang=   0.00 deg.
 Guess basis will be translated and rotated to current coordinates.
 Initial guess orbital symmetries:
       Occupied  (A) (A) (A) (A) (A) (A) (A) (A) (A) (A) (A) (A)
                 (A)
       Virtual   (A) (A) (A) (A) (A) (A) (A) (A) (A) (A)
 The electronic state of the initial guess is 1-A.
 Generating alternative initial guess.
 Harris functional with IExCor=  205 diagonalized for initial guess.
 ExpMin= 1.69D-01 ExpMax= 7.16D+01 ExpMxC= 7.16D+01 IAcc=1 IRadAn=         1 AccDes= 0.00D+00
 HarFok:  IExCor=  205 AccDes= 0.00D+00 IRadAn=         1 IDoV= 1
 ScaDFX=  1.000000  1.000000  1.000000  1.000000
 FoFCou: FMM=F IPFlag=           0 FMFlag=      100000 FMFlg1=           0
         NFxFlg=           0 DoJE=T BraDBF=F KetDBF=T FulRan=T
         Omega=  0.000000  0.000000  1.000000  0.000000  0.000000 ICntrl=     500 IOpCl=  0
         NMat0=    1 NMatS0=    1 NMatT0=    0 NMatD0=    1 NMtDS0=    0 NMtDT0=    0
         I1Cent=           4 NGrid=           0.
 Petite list used in FoFCou.
 Harris En= -117.166216219538    
 Leave Link  401 at Tue Aug 13 01:14:21 2024, MaxMem=   33554432 cpu:       1.0
 (Enter /programs/64bit/g09/g09-gfortran/bin/l502.exe)
 Closed shell SCF:
 Requested convergence on RMS density matrix=1.00D-08 within 128 cycles.
 Requested convergence on MAX density matrix=1.00D-06.
 Requested convergence on             energy=1.00D-06.
 No special actions if energy rises.
 Using DIIS extrapolation, IDIIS=  1040.
 Integral symmetry usage will be decided dynamically.
 Keep R1 ints in memory in canonical form, NReq=858308.
 IEnd=       20068 IEndB=       20068 NGot=    33554432 MDV=    33513303
 LenX=    33513303 LenY=    33512333
 Symmetry not used in FoFDir.
 MinBra= 0 MaxBra= 1 Meth= 1.
 IRaf=       0 NMat=   1 IRICut=       1 DoRegI=T DoRafI=F ISym2E= 0 JSym2E=0.

 Cycle   1  Pass 1  IDiag  1:
 E= -108.899788433979    
 DIIS: error= 1.19D-01 at cycle   1 NSaved=   1.
 NSaved= 1 IEnMin= 1 EnMin= -108.899788433979     IErMin= 1 ErrMin= 1.19D-01
 ErrMax= 1.19D-01 EMaxC= 1.00D-01 BMatC= 4.41D-01 BMatP= 4.41D-01
 IDIUse=3 WtCom= 0.00D+00 WtEn= 1.00D+00
 Coeff-Com:  0.100D+01
 Coeff-En:   0.100D+01
 Coeff:      0.100D+01
 Recover alternate guess density for next cycle.
 RMSDP=2.60D-01 MaxDP=1.25D+00              OVMax= 0.00D+00

 Cycle   2  Pass 1  IDiag  1:
 E= -116.705627963706     Delta-E=       -7.805839529728 Rises=F Damp=F
 DIIS: error= 5.69D-02 at cycle   2 NSaved=   2.
 NSaved= 2 IEnMin= 2 EnMin= -116.705627963706     IErMin= 2 ErrMin= 5.69D-02
 ErrMax= 5.69D-02 EMaxC= 1.00D-01 BMatC= 1.13D-01 BMatP= 4.41D-01
 IDIUse=3 WtCom= 4.31D-01 WtEn= 5.69D-01
 Coeff-Com:  0.210D+00 0.790D+00
 Coeff-En:   0.000D+00 0.100D+01
 Coeff:      0.907D-01 0.909D+00
 Gap=     0.985 Goal=   None    Shift=    0.000
 RMSDP=2.18D-02 MaxDP=1.23D-01 DE=-7.81D+00 OVMax= 0.00D+00

 Cycle   3  Pass 1  IDiag  1:
 E= -116.821126828351     Delta-E=       -0.115498864645 Rises=F Damp=F
 DIIS: error= 1.26D-02 at cycle   3 NSaved=   3.
 NSaved= 3 IEnMin= 3 EnMin= -116.821126828351     IErMin= 3 ErrMin= 1.26D-02
 ErrMax= 1.26D-02 EMaxC= 1.00D-01 BMatC= 6.19D-03 BMatP= 1.13D-01
 IDIUse=3 WtCom= 8.74D-01 WtEn= 1.26D-01
 Coeff-Com:  0.237D-03 0.147D+00 0.852D+00
 Coeff-En:   0.000D+00 0.000D+00 0.100D+01
 Coeff:      0.207D-03 0.129D+00 0.871D+00
 Gap=     0.985 Goal=   None    Shift=    0.000
 RMSDP=4.78D-03 MaxDP=2.88D-02 DE=-1.15D-01 OVMax= 0.00D+00

 Cycle   4  Pass 1  IDiag  1:
 E= -116.828368894417     Delta-E=       -0.007242066066 Rises=F Damp=F
 DIIS: error= 1.06D-03 at cycle   4 NSaved=   4.
 NSaved= 4 IEnMin= 4 EnMin= -116.828368894417     IErMin= 4 ErrMin= 1.06D-03
 ErrMax= 1.06D-03 EMaxC= 1.00D-01 BMatC= 4.50D-05 BMatP= 6.19D-03
 IDIUse=3 WtCom= 9.89D-01 WtEn= 1.06D-02
 Coeff-Com: -0.421D-02-0.145D-01 0.681D-02 0.101D+01
 Coeff-En:   0.000D+00 0.000D+00 0.000D+00 0.100D+01
 Coeff:     -0.416D-02-0.144D-01 0.673D-02 0.101D+01
 Gap=     0.970 Goal=   None    Shift=    0.000
 RMSDP=4.48D-04 MaxDP=1.81D-03 DE=-7.24D-03 OVMax= 0.00D+00

 Cycle   5  Pass 1  IDiag  1:
 E= -116.828442194072     Delta-E=       -0.000073299655 Rises=F Damp=F
 DIIS: error= 1.68D-04 at cycle   5 NSaved=   5.
 NSaved= 5 IEnMin= 5 EnMin= -116.828442194072     IErMin= 5 ErrMin= 1.68D-04
 ErrMax= 1.68D-04 EMaxC= 1.00D-01 BMatC= 1.20D-06 BMatP= 4.50D-05
 IDIUse=3 WtCom= 9.98D-01 WtEn= 1.68D-03
 Coeff-Com:  0.943D-03 0.359D-02 0.714D-02-0.278D+00 0.127D+01
 Coeff-En:   0.000D+00 0.000D+00 0.000D+00 0.000D+00 0.100D+01
 Coeff:      0.941D-03 0.359D-02 0.713D-02-0.278D+00 0.127D+01
 Gap=     0.968 Goal=   None    Shift=    0.000
 RMSDP=8.99D-05 MaxDP=4.66D-04 DE=-7.33D-05 OVMax= 0.00D+00

 Cycle   6  Pass 1  IDiag  1:
 E= -116.828444246672     Delta-E=       -0.000002052601 Rises=F Damp=F
 DIIS: error= 3.74D-05 at cycle   6 NSaved=   6.
 NSaved= 6 IEnMin= 6 EnMin= -116.828444246672     IErMin= 6 ErrMin= 3.74D-05
 ErrMax= 3.74D-05 EMaxC= 1.00D-01 BMatC= 4.48D-08 BMatP= 1.20D-06
 IDIUse=1 WtCom= 1.00D+00 WtEn= 0.00D+00
 Coeff-Com: -0.102D-04-0.167D-03-0.312D-02 0.875D-02-0.731D-01 0.107D+01
 Coeff:     -0.102D-04-0.167D-03-0.312D-02 0.875D-02-0.731D-01 0.107D+01
 Gap=     0.969 Goal=   None    Shift=    0.000
 RMSDP=1.37D-05 MaxDP=9.53D-05 DE=-2.05D-06 OVMax= 0.00D+00

 Cycle   7  Pass 1  IDiag  1:
 E= -116.828444304599     Delta-E=       -0.000000057927 Rises=F Damp=F
 DIIS: error= 4.31D-06 at cycle   7 NSaved=   7.
 NSaved= 7 IEnMin= 7 EnMin= -116.828444304599     IErMin= 7 ErrMin= 4.31D-06
 ErrMax= 4.31D-06 EMaxC= 1.00D-01 BMatC= 6.76D-10 BMatP= 4.48D-08
 IDIUse=1 WtCom= 1.00D+00 WtEn= 0.00D+00
 Coeff-Com: -0.389D-04-0.130D-03-0.353D-03 0.102D-01-0.457D-01 0.402D-01
 Coeff-Com:  0.996D+00
 Coeff:     -0.389D-04-0.130D-03-0.353D-03 0.102D-01-0.457D-01 0.402D-01
 Coeff:      0.996D+00
 Gap=     0.969 Goal=   None    Shift=    0.000
 RMSDP=1.95D-06 MaxDP=9.74D-06 DE=-5.79D-08 OVMax= 0.00D+00

 Cycle   8  Pass 1  IDiag  1:
 E= -116.828444305822     Delta-E=       -0.000000001223 Rises=F Damp=F
 DIIS: error= 1.51D-06 at cycle   8 NSaved=   8.
 NSaved= 8 IEnMin= 8 EnMin= -116.828444305822     IErMin= 8 ErrMin= 1.51D-06
 ErrMax= 1.51D-06 EMaxC= 1.00D-01 BMatC= 7.00D-11 BMatP= 6.76D-10
 IDIUse=1 WtCom= 1.00D+00 WtEn= 0.00D+00
 Coeff-Com: -0.323D-06 0.732D-05 0.225D-03-0.202D-03 0.168D-02-0.451D-01
 Coeff-Com: -0.887D-01 0.113D+01
 Coeff:     -0.323D-06 0.732D-05 0.225D-03-0.202D-03 0.168D-02-0.451D-01
 Coeff:     -0.887D-01 0.113D+01
 Gap=     0.969 Goal=   None    Shift=    0.000
 RMSDP=6.59D-07 MaxDP=5.03D-06 DE=-1.22D-09 OVMax= 0.00D+00

 Cycle   9  Pass 1  IDiag  1:
 E= -116.828444305937     Delta-E=       -0.000000000115 Rises=F Damp=F
 DIIS: error= 1.06D-07 at cycle   9 NSaved=   9.
 NSaved= 9 IEnMin= 9 EnMin= -116.828444305937     IErMin= 9 ErrMin= 1.06D-07
 ErrMax= 1.06D-07 EMaxC= 1.00D-01 BMatC= 3.26D-13 BMatP= 7.00D-11
 IDIUse=1 WtCom= 1.00D+00 WtEn= 0.00D+00
 Coeff-Com:  0.285D-06-0.115D-05-0.554D-04-0.101D-04-0.123D-03 0.113D-01
 Coeff-Com:  0.128D-01-0.301D+00 0.128D+01
 Coeff:      0.285D-06-0.115D-05-0.554D-04-0.101D-04-0.123D-03 0.113D-01
 Coeff:      0.128D-01-0.301D+00 0.128D+01
 Gap=     0.969 Goal=   None    Shift=    0.000
 RMSDP=5.99D-08 MaxDP=3.72D-07 DE=-1.15D-10 OVMax= 0.00D+00

 Cycle  10  Pass 1  IDiag  1:
 E= -116.828444305937     Delta-E=       -0.000000000001 Rises=F Damp=F
 DIIS: error= 1.52D-08 at cycle  10 NSaved=  10.
 NSaved=10 IEnMin=10 EnMin= -116.828444305937     IErMin=10 ErrMin= 1.52D-08
 ErrMax= 1.52D-08 EMaxC= 1.00D-01 BMatC= 4.60D-15 BMatP= 3.26D-13
 IDIUse=1 WtCom= 1.00D+00 WtEn= 0.00D+00
 Coeff-Com: -0.134D-08 0.245D-06 0.702D-05-0.646D-05 0.604D-04-0.151D-02
 Coeff-Com: -0.179D-02 0.411D-01-0.209D+00 0.117D+01
 Coeff:     -0.134D-08 0.245D-06 0.702D-05-0.646D-05 0.604D-04-0.151D-02
 Coeff:     -0.179D-02 0.411D-01-0.209D+00 0.117D+01
 Gap=     0.969 Goal=   None    Shift=    0.000
 RMSDP=5.23D-09 MaxDP=2.68D-08 DE=-6.54D-13 OVMax= 0.00D+00

 SCF Done:  E(RHF) =  -116.828444306     A.U. after   10 cycles
             Convg  =    0.5234D-08             -V/T =  2.0074
 KE= 1.159711619568D+02 PE=-4.361674791467D+02 EE= 1.208788416763D+02
 Leave Link  502 at Tue Aug 13 01:14:21 2024, MaxMem=   33554432 cpu:       0.1
 (Enter /programs/64bit/g09/g09-gfortran/bin/l108.exe)
 Variable Step   Value    
 -------- ---- -----------
     5       2    2.913827
 Leave Link  108 at Tue Aug 13 01:14:21 2024, MaxMem=   33554432 cpu:       0.0
 (Enter /programs/64bit/g09/g09-gfortran/bin/l202.exe)
 ---------------------------------------------------------------------------------------------------
                            Z-MATRIX (ANGSTROMS AND DEGREES)
   CD    Cent   Atom    N1       Length/X        N2       Alpha/Y        N3        Beta/Z          J
 ---------------------------------------------------------------------------------------------------
      1      1  C 
      2      2  C        1   1.526000(     1)
      3      3  C        1   1.526000(     2)      2  112.400(    11)
      4      4  H        1   1.096000(     3)      2  109.560(    12)      3  166.950(    20)      0
      5      5  H        1   1.096000(     4)      2  109.560(    13)      4  106.100(    21)      0
      6      6  H        2   1.089000(     5)      1  111.800(    14)      3  180.000(    22)      0
      7      7  H        3   1.089000(     6)      1  111.800(    15)      2  180.000(    23)      0
      8      8  H        2   1.094000(     7)      1  110.600(    16)      6  107.300(    24)      0
      9      9  H        2   1.094000(     8)      1  110.600(    17)      6 -107.300(    25)      0
     10     10  H        3   1.094000(     9)      1  110.600(    18)      7  107.300(    26)      0
     11     11  H        3   1.094000(    10)      1  110.600(    19)      7 -107.300(    27)      0
 ---------------------------------------------------------------------------------------------------
                         Z-Matrix orientation:                         
 ---------------------------------------------------------------------
 Center     Atomic      Atomic             Coordinates (Angstroms)
 Number     Number       Type             X           Y           Z
 ---------------------------------------------------------------------
      1          6           0        0.000000    0.000000    0.000000
      2          6           0        0.000000    0.000000    1.526000
      3          6           0        1.410857    0.000000   -0.581513
      4          1           0       -1.006079   -0.233197   -0.366934
      5          1           0        0.054950    1.031288   -0.366934
      6          1           0       -1.011121    0.000000    1.930420
      7          1           0        1.399453   -0.000000   -1.670454
      8          1           0        0.304526   -0.977722    1.910915
      9          1           0        0.304526    0.977722    1.910915
     10          1           0        1.882775    0.977722   -0.446644
     11          1           0        1.882775   -0.977722   -0.446644
 ---------------------------------------------------------------------
                    Distance matrix (angstroms):
                    1          2          3          4          5
     1  C    0.000000
     2  C    1.526000   0.000000
     3  C    1.526000   2.536165   0.000000
     4  H    1.096000   2.156334   2.437623   0.000000
     5  H    1.096000   2.156334   1.716999   1.650668   0.000000
     6  H    2.179194   1.089000   3.489382   2.309164   2.734574
     7  H    2.179194   3.489382   1.089000   2.745930   2.137851
     8  H    2.168011   1.094000   2.896913   2.731410   3.047459
     9  H    2.168011   1.094000   2.896913   2.893545   2.292107
    10  H    2.168011   2.896913   1.094000   3.133393   1.830346
    11  H    2.168011   2.896913   1.094000   2.984317   2.717245
                    6          7          8          9         10
     6  H    0.000000
     7  H    4.333262   0.000000
     8  H    1.639283   3.870530   0.000000
     9  H    1.639283   3.870530   1.955444   0.000000
    10  H    3.870530   1.639283   3.445680   2.837067   0.000000
    11  H    3.870530   1.639283   2.837067   3.445680   1.955444
                   11
    11  H    0.000000
 Stoichiometry    C3H8
 Framework group  C1[X(C3H8)]
 Deg. of freedom    27
 Full point group                 C1      NOp   1
 Largest Abelian subgroup         C1      NOp   1
 Largest concise Abelian subgroup C1      NOp   1
                         Standard orientation:                         
 ---------------------------------------------------------------------
 Center     Atomic      Atomic             Coordinates (Angstroms)
 Number     Number       Type             X           Y           Z
 ---------------------------------------------------------------------
      1          6           0       -0.006701    0.559867   -0.089351
      2          6           0       -1.269847   -0.289928    0.015456
      3          6           0        1.266078   -0.278922   -0.017631
      4          1           0       -0.270259    1.569005   -0.426089
      5          1           0        0.340769    0.826215    0.915407
      6          1           0       -2.171801    0.318077   -0.036791
      7          1           0        2.161051    0.336881   -0.093323
      8          1           0       -1.429879   -0.856945   -0.906346
      9          1           0       -1.405389   -0.653505    1.038333
     10          1           0        1.431410   -0.641193    1.001320
     11          1           0        1.406920   -0.844633   -0.943358
 ---------------------------------------------------------------------
 Rotational constants (GHZ):     30.9163214      8.2457409      7.4588590
 Leave Link  202 at Tue Aug 13 01:14:21 2024, MaxMem=   33554432 cpu:       0.0
 (Enter /programs/64bit/g09/g09-gfortran/bin/l301.exe)
 Standard basis: STO-3G (5D, 7F)
 Ernie: Thresh=  0.10000D-02 Tol=  0.10000D-05 Strict=F.
 There are    23 symmetry adapted basis functions of A   symmetry.
 Integral buffers will be    131072 words long.
 Raffenetti 1 integral format.
 Two-electron integral symmetry is turned on.
    23 basis functions,    69 primitive gaussians,    23 cartesian basis functions
    13 alpha electrons       13 beta electrons
       nuclear repulsion energy        82.7621647468 Hartrees.
 IExCor=    0 DFT=F Ex=HF Corr=None ExCW=0 ScaHFX=  1.000000
 ScaDFX=  1.000000  1.000000  1.000000  1.000000 ScalE2=  1.000000  1.000000
 IRadAn=      0 IRanWt=     -1 IRanGd=            0 ICorTp=0
 NAtoms=   11 NActive=   11 NUniq=   11 SFac= 7.50D-01 NAtFMM=   80 NAOKFM=F Big=F
 Leave Link  301 at Tue Aug 13 01:14:21 2024, MaxMem=   33554432 cpu:       0.1
 (Enter /programs/64bit/g09/g09-gfortran/bin/l302.exe)
 NPDir=0 NMtPBC=     1 NCelOv=     1 NCel=       1 NClECP=     1 NCelD=      1
         NCelK=      1 NCelE2=     1 NClLst=     1 CellRange=     0.0.
 One-electron integrals computed using PRISM.
 NBasis=    23 RedAO= T  NBF=    23
 NBsUse=    23 1.00D-06 NBFU=    23
 Leave Link  302 at Tue Aug 13 01:14:21 2024, MaxMem=   33554432 cpu:       0.2
 (Enter /programs/64bit/g09/g09-gfortran/bin/l303.exe)
 DipDrv:  MaxL=1.
 Leave Link  303 at Tue Aug 13 01:14:21 2024, MaxMem=   33554432 cpu:       0.0
 (Enter /programs/64bit/g09/g09-gfortran/bin/l401.exe)
 Initial guess read from the read-write file.
 B after Tr=     0.000000    0.000000    0.000000
         Rot=    1.000000    0.000000    0.000000    0.000000 Ang=   0.00 deg.
 Guess basis will be translated and rotated to current coordinates.
 Initial guess orbital symmetries:
       Occupied  (A) (A) (A) (A) (A) (A) (A) (A) (A) (A) (A) (A)
                 (A)
       Virtual   (A) (A) (A) (A) (A) (A) (A) (A) (A) (A)
 The electronic state of the initial guess is 1-A.
 Generating alternative initial guess.
 Harris functional with IExCor=  205 diagonalized for initial guess.
 ExpMin= 1.69D-01 ExpMax= 7.16D+01 ExpMxC= 7.16D+01 IAcc=1 IRadAn=         1 AccDes= 0.00D+00
 HarFok:  IExCor=  205 AccDes= 0.00D+00 IRadAn=         1 IDoV= 1
 ScaDFX=  1.000000  1.000000  1.000000  1.000000
 FoFCou: FMM=F IPFlag=           0 FMFlag=      100000 FMFlg1=           0
         NFxFlg=           0 DoJE=T BraDBF=F KetDBF=T FulRan=T
         Omega=  0.000000  0.000000  1.000000  0.000000  0.000000 ICntrl=     500 IOpCl=  0
         NMat0=    1 NMatS0=    1 NMatT0=    0 NMatD0=    1 NMtDS0=    0 NMtDT0=    0
         I1Cent=           4 NGrid=           0.
 Petite list used in FoFCou.
 Harris En= -117.123633488379    
 Leave Link  401 at Tue Aug 13 01:14:22 2024, MaxMem=   33554432 cpu:       1.0
 (Enter /programs/64bit/g09/g09-gfortran/bin/l502.exe)
 Closed shell SCF:
 Requested convergence on RMS density matrix=1.00D-08 within 128 cycles.
 Requested convergence on MAX density matrix=1.00D-06.
 Requested convergence on             energy=1.00D-06.
 No special actions if energy rises.
 Using DIIS extrapolation, IDIIS=  1040.
 Integral symmetry usage will be decided dynamically.
 Keep R1 ints in memory in canonical form, NReq=858308.
 IEnd=       20068 IEndB=       20068 NGot=    33554432 MDV=    33513303
 LenX=    33513303 LenY=    33512333
 Symmetry not used in FoFDir.
 MinBra= 0 MaxBra= 1 Meth= 1.
 IRaf=       0 NMat=   1 IRICut=       1 DoRegI=T DoRafI=F ISym2E= 0 JSym2E=0.

 Cycle   1  Pass 1  IDiag  1:
 E= -116.763336058052    
 DIIS: error= 1.18D-02 at cycle   1 NSaved=   1.
 NSaved= 1 IEnMin= 1 EnMin= -116.763336058052     IErMin= 1 ErrMin= 1.18D-02
 ErrMax= 1.18D-02 EMaxC= 1.00D-01 BMatC= 4.85D-03 BMatP= 4.85D-03
 IDIUse=3 WtCom= 8.82D-01 WtEn= 1.18D-01
 Coeff-Com:  0.100D+01
 Coeff-En:   0.100D+01
 Coeff:      0.100D+01
 Recover alternate guess density for next cycle.
 RMSDP=1.98D-02 MaxDP=1.09D-01              OVMax= 0.00D+00

 Cycle   2  Pass 1  IDiag  1:
 E= -116.651244688539     Delta-E=        0.112091369513 Rises=F Damp=F
 Switch densities from cycles 1 and 2 for lowest energy.
 DIIS: error= 5.37D-02 at cycle   2 NSaved=   2.
 NSaved= 2 IEnMin= 1 EnMin= -116.763336058052     IErMin= 1 ErrMin= 1.18D-02
 ErrMax= 5.37D-02 EMaxC= 1.00D+00 BMatC= 1.13D-01 BMatP= 4.85D-03
 IDIUse=1 WtCom= 1.00D+00 WtEn= 0.00D+00
 Coeff-Com:  0.963D+00 0.371D-01
 Coeff:      0.963D+00 0.371D-01
 Gap=     0.878 Goal=   None    Shift=    0.000
 RMSDP=5.46D-03 MaxDP=3.82D-02 DE= 1.12D-01 OVMax= 0.00D+00

 Cycle   3  Pass 1  IDiag  1:
 E= -116.774087481340     Delta-E=       -0.122842792801 Rises=F Damp=F
 DIIS: error= 3.48D-03 at cycle   3 NSaved=   3.
 NSaved= 3 IEnMin= 3 EnMin= -116.774087481340     IErMin= 3 ErrMin= 3.48D-03
 ErrMax= 3.48D-03 EMaxC= 1.00D+00 BMatC= 4.56D-04 BMatP= 4.85D-03
 IDIUse=1 WtCom= 1.00D+00 WtEn= 0.00D+00
 Coeff-Com: -0.401D+00 0.112D-01 0.139D+01
 Coeff:     -0.401D+00 0.112D-01 0.139D+01
 Gap=     0.869 Goal=   None    Shift=    0.000
 RMSDP=2.38D-03 MaxDP=1.74D-02 DE=-1.23D-01 OVMax= 0.00D+00

 Cycle   4  Pass 1  IDiag  1:
 E= -116.775239566572     Delta-E=       -0.001152085232 Rises=F Damp=F
 DIIS: error= 2.55D-04 at cycle   4 NSaved=   4.
 NSaved= 4 IEnMin= 4 EnMin= -116.775239566572     IErMin= 4 ErrMin= 2.55D-04
 ErrMax= 2.55D-04 EMaxC= 1.00D+00 BMatC= 2.30D-06 BMatP= 4.56D-04
 IDIUse=1 WtCom= 1.00D+00 WtEn= 0.00D+00
 Coeff-Com:  0.129D-01-0.153D-02-0.719D-01 0.106D+01
 Coeff:      0.129D-01-0.153D-02-0.719D-01 0.106D+01
 Gap=     0.869 Goal=   None    Shift=    0.000
 RMSDP=1.43D-04 MaxDP=6.60D-04 DE=-1.15D-03 OVMax= 0.00D+00

 Cycle   5  Pass 1  IDiag  1:
 E= -116.775245129784     Delta-E=       -0.000005563212 Rises=F Damp=F
 DIIS: error= 7.01D-05 at cycle   5 NSaved=   5.
 NSaved= 5 IEnMin= 5 EnMin= -116.775245129784     IErMin= 5 ErrMin= 7.01D-05
 ErrMax= 7.01D-05 EMaxC= 1.00D+00 BMatC= 1.60D-07 BMatP= 2.30D-06
 IDIUse=1 WtCom= 1.00D+00 WtEn= 0.00D+00
 Coeff-Com:  0.145D-01-0.297D-03-0.496D-01-0.688D-01 0.110D+01
 Coeff:      0.145D-01-0.297D-03-0.496D-01-0.688D-01 0.110D+01
 Gap=     0.869 Goal=   None    Shift=    0.000
 RMSDP=3.90D-05 MaxDP=1.50D-04 DE=-5.56D-06 OVMax= 0.00D+00

 Cycle   6  Pass 1  IDiag  1:
 E= -116.775245499398     Delta-E=       -0.000000369614 Rises=F Damp=F
 DIIS: error= 1.73D-05 at cycle   6 NSaved=   6.
 NSaved= 6 IEnMin= 6 EnMin= -116.775245499398     IErMin= 6 ErrMin= 1.73D-05
 ErrMax= 1.73D-05 EMaxC= 1.00D+00 BMatC= 5.91D-09 BMatP= 1.60D-07
 IDIUse=1 WtCom= 1.00D+00 WtEn= 0.00D+00
 Coeff-Com: -0.119D-02 0.109D-03 0.527D-02-0.455D-01-0.238D-01 0.107D+01
 Coeff:     -0.119D-02 0.109D-03 0.527D-02-0.455D-01-0.238D-01 0.107D+01
 Gap=     0.869 Goal=   None    Shift=    0.000
 RMSDP=7.76D-06 MaxDP=3.55D-05 DE=-3.70D-07 OVMax= 0.00D+00

 Cycle   7  Pass 1  IDiag  1:
 E= -116.775245513617     Delta-E=       -0.000000014218 Rises=F Damp=F
 DIIS: error= 2.07D-06 at cycle   7 NSaved=   7.
 NSaved= 7 IEnMin= 7 EnMin= -116.775245513617     IErMin= 7 ErrMin= 2.07D-06
 ErrMax= 2.07D-06 EMaxC= 1.00D+00 BMatC= 2.33D-10 BMatP= 5.91D-09
 IDIUse=1 WtCom= 1.00D+00 WtEn= 0.00D+00
 Coeff-Com: -0.197D-03-0.169D-04 0.463D-03 0.113D-01-0.343D-01-0.192D+00
 Coeff-Com:  0.122D+01
 Coeff:     -0.197D-03-0.169D-04 0.463D-03 0.113D-01-0.343D-01-0.192D+00
 Coeff:      0.122D+01
 Gap=     0.869 Goal=   None    Shift=    0.000
 RMSDP=1.58D-06 MaxDP=8.33D-06 DE=-1.42D-08 OVMax= 0.00D+00

 Cycle   8  Pass 1  IDiag  1:
 E= -116.775245514188     Delta-E=       -0.000000000571 Rises=F Damp=F
 DIIS: error= 4.36D-07 at cycle   8 NSaved=   8.
 NSaved= 8 IEnMin= 8 EnMin= -116.775245514188     IErMin= 8 ErrMin= 4.36D-07
 ErrMax= 4.36D-07 EMaxC= 1.00D+00 BMatC= 5.51D-12 BMatP= 2.33D-10
 IDIUse=1 WtCom= 1.00D+00 WtEn= 0.00D+00
 Coeff-Com:  0.278D-04-0.282D-05-0.132D-03 0.151D-02-0.675D-04-0.296D-01
 Coeff-Com: -0.537D-02 0.103D+01
 Coeff:      0.278D-04-0.282D-05-0.132D-03 0.151D-02-0.675D-04-0.296D-01
 Coeff:     -0.537D-02 0.103D+01
 Gap=     0.869 Goal=   None    Shift=    0.000
 RMSDP=2.24D-07 MaxDP=1.07D-06 DE=-5.71D-10 OVMax= 0.00D+00

 Cycle   9  Pass 1  IDiag  1:
 E= -116.775245514200     Delta-E=       -0.000000000013 Rises=F Damp=F
 DIIS: error= 6.56D-08 at cycle   9 NSaved=   9.
 NSaved= 9 IEnMin= 9 EnMin= -116.775245514200     IErMin= 9 ErrMin= 6.56D-08
 ErrMax= 6.56D-08 EMaxC= 1.00D+00 BMatC= 2.39D-13 BMatP= 5.51D-12
 IDIUse=1 WtCom= 1.00D+00 WtEn= 0.00D+00
 Coeff-Com:  0.356D-05 0.109D-05-0.154D-05-0.568D-03 0.120D-02 0.108D-01
 Coeff-Com: -0.502D-01-0.754D-01 0.111D+01
 Coeff:      0.356D-05 0.109D-05-0.154D-05-0.568D-03 0.120D-02 0.108D-01
 Coeff:     -0.502D-01-0.754D-01 0.111D+01
 Gap=     0.869 Goal=   None    Shift=    0.000
 RMSDP=4.95D-08 MaxDP=2.33D-07 DE=-1.25D-11 OVMax= 0.00D+00

 Cycle  10  Pass 1  IDiag  1:
 E= -116.775245514200     Delta-E=       -0.000000000000 Rises=F Damp=F
 DIIS: error= 1.31D-08 at cycle  10 NSaved=  10.
 NSaved=10 IEnMin=10 EnMin= -116.775245514200     IErMin=10 ErrMin= 1.31D-08
 ErrMax= 1.31D-08 EMaxC= 1.00D+00 BMatC= 5.85D-15 BMatP= 2.39D-13
 IDIUse=1 WtCom= 1.00D+00 WtEn= 0.00D+00
 Coeff-Com: -0.157D-05-0.156D-06 0.471D-05 0.609D-04-0.239D-03-0.959D-03
 Coeff-Com:  0.857D-02-0.147D-01-0.189D+00 0.120D+01
 Coeff:     -0.157D-05-0.156D-06 0.471D-05 0.609D-04-0.239D-03-0.959D-03
 Coeff:      0.857D-02-0.147D-01-0.189D+00 0.120D+01
 Gap=     0.869 Goal=   None    Shift=    0.000
[...]
 NSaved= 7 IEnMin= 7 EnMin= -116.845011500073     IErMin= 7 ErrMin= 8.15D-07
 ErrMax= 8.15D-07 EMaxC= 1.00D+00 BMatC= 3.01D-11 BMatP= 1.25D-09
 IDIUse=1 WtCom= 1.00D+00 WtEn= 0.00D+00
 Coeff-Com: -0.111D-03-0.115D-04 0.314D-03 0.608D-02-0.340D-01-0.102D+00
 Coeff-Com:  0.113D+01
 Coeff:     -0.111D-03-0.115D-04 0.314D-03 0.608D-02-0.340D-01-0.102D+00
 Coeff:      0.113D+01
 Gap=     0.990 Goal=   None    Shift=    0.000
 RMSDP=5.07D-07 MaxDP=2.50D-06 DE=-2.26D-09 OVMax= 0.00D+00

 Cycle   8  Pass 1  IDiag  1:
 Density matrix breaks symmetry, PCut= 1.00D-07
 Density matrix has no symmetry -- integrals replicated.
 E= -116.845011500135     Delta-E=       -0.000000000062 Rises=F Damp=F
 DIIS: error= 1.05D-07 at cycle   8 NSaved=   8.
 NSaved= 8 IEnMin= 8 EnMin= -116.845011500135     IErMin= 8 ErrMin= 1.05D-07
 ErrMax= 1.05D-07 EMaxC= 1.00D+00 BMatC= 4.28D-13 BMatP= 3.01D-11
 IDIUse=1 WtCom= 1.00D+00 WtEn= 0.00D+00
 Coeff-Com:  0.221D-04 0.127D-05-0.761D-04-0.411D-03 0.445D-02 0.773D-04
 Coeff-Com: -0.164D+00 0.116D+01
 Coeff:      0.221D-04 0.127D-05-0.761D-04-0.411D-03 0.445D-02 0.773D-04
 Coeff:     -0.164D+00 0.116D+01
 Gap=     0.990 Goal=   None    Shift=    0.000
 RMSDP=5.55D-08 MaxDP=2.79D-07 DE=-6.15D-11 OVMax= 0.00D+00

 Cycle   9  Pass 1  IDiag  1:
 E= -116.845011500135     Delta-E=       -0.000000000001 Rises=F Damp=F
 DIIS: error= 1.25D-08 at cycle   9 NSaved=   9.
 NSaved= 9 IEnMin= 9 EnMin= -116.845011500135     IErMin= 9 ErrMin= 1.25D-08
 ErrMax= 1.25D-08 EMaxC= 1.00D+00 BMatC= 3.51D-15 BMatP= 4.28D-13
 IDIUse=1 WtCom= 1.00D+00 WtEn= 0.00D+00
 Coeff-Com:  0.141D-05 0.963D-07-0.453D-05-0.433D-04 0.302D-03 0.565D-03
 Coeff-Com: -0.115D-01 0.418D-01 0.969D+00
 Coeff:      0.141D-05 0.963D-07-0.453D-05-0.433D-04 0.302D-03 0.565D-03
 Coeff:     -0.115D-01 0.418D-01 0.969D+00
 Gap=     0.990 Goal=   None    Shift=    0.000
 RMSDP=8.29D-09 MaxDP=3.58D-08 DE=-6.82D-13 OVMax= 0.00D+00

 SCF Done:  E(RHF) =  -116.845011500     A.U. after    9 cycles
             Convg  =    0.8287D-08             -V/T =  2.0078
 KE= 1.159392817320D+02 PE=-4.359733257590D+02 EE= 1.207848130487D+02
 Leave Link  502 at Tue Aug 13 01:14:49 2024, MaxMem=   33554432 cpu:       0.1
 (Enter /programs/64bit/g09/g09-gfortran/bin/l108.exe)
 Variable Step   Value    
 -------- ---- -----------
     5      19    8.847947
 Leave Link  108 at Tue Aug 13 01:14:49 2024, MaxMem=   33554432 cpu:       0.0
 (Enter /programs/64bit/g09/g09-gfortran/bin/l202.exe)
 ---------------------------------------------------------------------------------------------------
                            Z-MATRIX (ANGSTROMS AND DEGREES)
   CD    Cent   Atom    N1       Length/X        N2       Alpha/Y        N3        Beta/Z          J
 ---------------------------------------------------------------------------------------------------
      1      1  C 
      2      2  C        1   1.526000(     1)
      3      3  C        1   1.526000(     2)      2  112.400(    11)
      4      4  H        1   1.096000(     3)      2  109.560(    12)      3  506.950(    20)      0
      5      5  H        1   1.096000(     4)      2  109.560(    13)      4  106.100(    21)      0
      6      6  H        2   1.089000(     5)      1  111.800(    14)      3  180.000(    22)      0
      7      7  H        3   1.089000(     6)      1  111.800(    15)      2  180.000(    23)      0
      8      8  H        2   1.094000(     7)      1  110.600(    16)      6  107.300(    24)      0
      9      9  H        2   1.094000(     8)      1  110.600(    17)      6 -107.300(    25)      0
     10     10  H        3   1.094000(     9)      1  110.600(    18)      7  107.300(    26)      0
     11     11  H        3   1.094000(    10)      1  110.600(    19)      7 -107.300(    27)      0
 ---------------------------------------------------------------------------------------------------
                         Z-Matrix orientation:                         
 ---------------------------------------------------------------------
 Center     Atomic      Atomic             Coordinates (Angstroms)
 Number     Number       Type             X           Y           Z
 ---------------------------------------------------------------------
      1          6           0        0.000000    0.000000    0.000000
      2          6           0        0.000000    0.000000    1.526000
      3          6           0        1.410857    0.000000   -0.581513
      4          1           0       -0.865647   -0.563232   -0.366934
      5          1           0       -0.301085    0.987888   -0.366934
      6          1           0       -1.011121    0.000000    1.930420
      7          1           0        1.399453   -0.000000   -1.670454
      8          1           0        0.304526   -0.977722    1.910915
      9          1           0        0.304526    0.977722    1.910915
     10          1           0        1.882775    0.977722   -0.446644
     11          1           0        1.882775   -0.977722   -0.446644
 ---------------------------------------------------------------------
                    Distance matrix (angstroms):
                    1          2          3          4          5
     1  C    0.000000
     2  C    1.526000   0.000000
     3  C    1.526000   2.536165   0.000000
     4  H    1.096000   2.156334   2.354941   0.000000
     5  H    1.096000   2.156334   1.988144   1.650668   0.000000
     6  H    2.179194   1.089000   3.489382   2.369858   2.599598
     7  H    2.179194   3.489382   1.089000   2.673401   2.359432
     8  H    2.168011   1.094000   2.896913   2.594167   3.069036
     9  H    2.168011   1.094000   2.896913   2.988719   2.357003
    10  H    2.168011   2.896913   1.094000   3.151938   2.185338
    11  H    2.168011   2.896913   1.094000   2.780643   2.939255
                    6          7          8          9         10
     6  H    0.000000
     7  H    4.333262   0.000000
     8  H    1.639283   3.870530   0.000000
     9  H    1.639283   3.870530   1.955444   0.000000
    10  H    3.870530   1.639283   3.445680   2.837067   0.000000
    11  H    3.870530   1.639283   2.837067   3.445680   1.955444
                   11
    11  H    0.000000
 Stoichiometry    C3H8
 Framework group  C1[X(C3H8)]
 Deg. of freedom    27
 Full point group                 C1      NOp   1
 Omega: Change in point group or standard orientation.

 Old FWG=CS   [SG(C3H2),X(H6)]
 New FWG=C01  [X(C3H8)]
 Largest Abelian subgroup         C1      NOp   1
 Largest concise Abelian subgroup C1      NOp   1
                         Standard orientation:                         
 ---------------------------------------------------------------------
 Center     Atomic      Atomic             Coordinates (Angstroms)
 Number     Number       Type             X           Y           Z
 ---------------------------------------------------------------------
      1          6           0       -0.001022    0.557853   -0.042907
      2          6           0       -1.265401   -0.295097    0.007105
      3          6           0        1.270670   -0.285078   -0.012222
      4          1           0       -0.185815    1.452778   -0.648032
      5          1           0        0.141773    1.059183    0.921195
      6          1           0       -2.166567    0.315902   -0.015291
      7          1           0        2.166535    0.333020   -0.048312
      8          1           0       -1.421093   -0.808843   -0.946132
      9          1           0       -1.406575   -0.715841    1.007045
     10          1           0        1.430388   -0.704633    0.985425
     11          1           0        1.415870   -0.797635   -0.967752
 ---------------------------------------------------------------------
 Rotational constants (GHZ):     30.2773917      8.2355069      7.4580303
 Leave Link  202 at Tue Aug 13 01:14:49 2024, MaxMem=   33554432 cpu:       0.0
 (Enter /programs/64bit/g09/g09-gfortran/bin/l301.exe)
 Standard basis: STO-3G (5D, 7F)
 Ernie: Thresh=  0.10000D-02 Tol=  0.10000D-05 Strict=F.
 There are    23 symmetry adapted basis functions of A   symmetry.
 Integral buffers will be    131072 words long.
 Raffenetti 1 integral format.
 Two-electron integral symmetry is turned on.
    23 basis functions,    69 primitive gaussians,    23 cartesian basis functions
    13 alpha electrons       13 beta electrons
       nuclear repulsion energy        82.4890312076 Hartrees.
 IExCor=    0 DFT=F Ex=HF Corr=None ExCW=0 ScaHFX=  1.000000
 ScaDFX=  1.000000  1.000000  1.000000  1.000000 ScalE2=  1.000000  1.000000
 IRadAn=      0 IRanWt=     -1 IRanGd=            0 ICorTp=0
 NAtoms=   11 NActive=   11 NUniq=   11 SFac= 7.50D-01 NAtFMM=   80 NAOKFM=F Big=F
 Leave Link  301 at Tue Aug 13 01:14:49 2024, MaxMem=   33554432 cpu:       0.1
 (Enter /programs/64bit/g09/g09-gfortran/bin/l302.exe)
 NPDir=0 NMtPBC=     1 NCelOv=     1 NCel=       1 NClECP=     1 NCelD=      1
         NCelK=      1 NCelE2=     1 NClLst=     1 CellRange=     0.0.
 One-electron integrals computed using PRISM.
 NBasis=    23 RedAO= T  NBF=    23
 NBsUse=    23 1.00D-06 NBFU=    23
 Leave Link  302 at Tue Aug 13 01:14:49 2024, MaxMem=   33554432 cpu:       0.1
 (Enter /programs/64bit/g09/g09-gfortran/bin/l303.exe)
 DipDrv:  MaxL=1.
 Leave Link  303 at Tue Aug 13 01:14:49 2024, MaxMem=   33554432 cpu:       0.0
 (Enter /programs/64bit/g09/g09-gfortran/bin/l401.exe)
 Initial guess read from the read-write file.
 B after Tr=     0.000000    0.000000    0.000000
         Rot=    1.000000    0.000000    0.000000    0.000000 Ang=   0.00 deg.
 Guess basis will be translated and rotated to current coordinates.
 Initial guess orbital symmetries:
       Occupied  (A) (A) (A) (A) (A) (A) (A) (A) (A) (A) (A) (A)
                 (A)
       Virtual   (A) (A) (A) (A) (A) (A) (A) (A) (A) (A)
 The electronic state of the initial guess is 1-A.
 Generating alternative initial guess.
 Harris functional with IExCor=  205 diagonalized for initial guess.
 ExpMin= 1.69D-01 ExpMax= 7.16D+01 ExpMxC= 7.16D+01 IAcc=1 IRadAn=         1 AccDes= 0.00D+00
 HarFok:  IExCor=  205 AccDes= 0.00D+00 IRadAn=         1 IDoV= 1
 ScaDFX=  1.000000  1.000000  1.000000  1.000000
 FoFCou: FMM=F IPFlag=           0 FMFlag=      100000 FMFlg1=           0
         NFxFlg=           0 DoJE=T BraDBF=F KetDBF=T FulRan=T
         Omega=  0.000000  0.000000  1.000000  0.000000  0.000000 ICntrl=     500 IOpCl=  0
         NMat0=    1 NMatS0=    1 NMatT0=    0 NMatD0=    1 NMtDS0=    0 NMtDT0=    0
         I1Cent=           4 NGrid=           0.
 Petite list used in FoFCou.
 Harris En= -117.166216219538    
 Leave Link  401 at Tue Aug 13 01:14:50 2024, MaxMem=   33554432 cpu:       1.0
 (Enter /programs/64bit/g09/g09-gfortran/bin/l502.exe)
 Closed shell SCF:
 Requested convergence on RMS density matrix=1.00D-08 within 128 cycles.
 Requested convergence on MAX density matrix=1.00D-06.
 Requested convergence on             energy=1.00D-06.
 No special actions if energy rises.
 Using DIIS extrapolation, IDIIS=  1040.
 Integral symmetry usage will be decided dynamically.
 Keep R1 ints in memory in canonical form, NReq=858308.
 IEnd=       20068 IEndB=       20068 NGot=    33554432 MDV=    33513303
 LenX=    33513303 LenY=    33512333
 Symmetry not used in FoFDir.
 MinBra= 0 MaxBra= 1 Meth= 1.
 IRaf=       0 NMat=   1 IRICut=       1 DoRegI=T DoRafI=F ISym2E= 0 JSym2E=0.

 Cycle   1  Pass 1  IDiag  1:
 E= -108.899788432667    
 DIIS: error= 1.19D-01 at cycle   1 NSaved=   1.
 NSaved= 1 IEnMin= 1 EnMin= -108.899788432667     IErMin= 1 ErrMin= 1.19D-01
 ErrMax= 1.19D-01 EMaxC= 1.00D-01 BMatC= 4.41D-01 BMatP= 4.41D-01
 IDIUse=3 WtCom= 0.00D+00 WtEn= 1.00D+00
 Coeff-Com:  0.100D+01
 Coeff-En:   0.100D+01
 Coeff:      0.100D+01
 Recover alternate guess density for next cycle.
 RMSDP=2.60D-01 MaxDP=1.25D+00              OVMax= 0.00D+00

 Cycle   2  Pass 1  IDiag  1:
 E= -116.705627963706     Delta-E=       -7.805839531040 Rises=F Damp=F
 DIIS: error= 5.69D-02 at cycle   2 NSaved=   2.
 NSaved= 2 IEnMin= 2 EnMin= -116.705627963706     IErMin= 2 ErrMin= 5.69D-02
 ErrMax= 5.69D-02 EMaxC= 1.00D-01 BMatC= 1.13D-01 BMatP= 4.41D-01
 IDIUse=3 WtCom= 4.31D-01 WtEn= 5.69D-01
 Coeff-Com:  0.210D+00 0.790D+00
 Coeff-En:   0.000D+00 0.100D+01
 Coeff:      0.907D-01 0.909D+00
 Gap=     0.985 Goal=   None    Shift=    0.000
 RMSDP=2.18D-02 MaxDP=1.23D-01 DE=-7.81D+00 OVMax= 0.00D+00

 Cycle   3  Pass 1  IDiag  1:
 E= -116.821126828388     Delta-E=       -0.115498864682 Rises=F Damp=F
 DIIS: error= 1.26D-02 at cycle   3 NSaved=   3.
 NSaved= 3 IEnMin= 3 EnMin= -116.821126828388     IErMin= 3 ErrMin= 1.26D-02
 ErrMax= 1.26D-02 EMaxC= 1.00D-01 BMatC= 6.19D-03 BMatP= 1.13D-01
 IDIUse=3 WtCom= 8.74D-01 WtEn= 1.26D-01
 Coeff-Com:  0.237D-03 0.147D+00 0.852D+00
 Coeff-En:   0.000D+00 0.000D+00 0.100D+01
 Coeff:      0.207D-03 0.129D+00 0.871D+00
 Gap=     0.985 Goal=   None    Shift=    0.000
 RMSDP=4.78D-03 MaxDP=2.88D-02 DE=-1.15D-01 OVMax= 0.00D+00

 Cycle   4  Pass 1  IDiag  1:
 E= -116.828368894417     Delta-E=       -0.007242066028 Rises=F Damp=F
 DIIS: error= 1.06D-03 at cycle   4 NSaved=   4.
 NSaved= 4 IEnMin= 4 EnMin= -116.828368894417     IErMin= 4 ErrMin= 1.06D-03
 ErrMax= 1.06D-03 EMaxC= 1.00D-01 BMatC= 4.50D-05 BMatP= 6.19D-03
 IDIUse=3 WtCom= 9.89D-01 WtEn= 1.06D-02
 Coeff-Com: -0.421D-02-0.145D-01 0.681D-02 0.101D+01
 Coeff-En:   0.000D+00 0.000D+00 0.000D+00 0.100D+01
 Coeff:     -0.416D-02-0.144D-01 0.673D-02 0.101D+01
 Gap=     0.970 Goal=   None    Shift=    0.000
 RMSDP=4.48D-04 MaxDP=1.81D-03 DE=-7.24D-03 OVMax= 0.00D+00

 Cycle   5  Pass 1  IDiag  1:
 E= -116.828442194072     Delta-E=       -0.000073299655 Rises=F Damp=F
 DIIS: error= 1.68D-04 at cycle   5 NSaved=   5.
 NSaved= 5 IEnMin= 5 EnMin= -116.828442194072     IErMin= 5 ErrMin= 1.68D-04
 ErrMax= 1.68D-04 EMaxC= 1.00D-01 BMatC= 1.20D-06 BMatP= 4.50D-05
 IDIUse=3 WtCom= 9.98D-01 WtEn= 1.68D-03
 Coeff-Com:  0.943D-03 0.359D-02 0.714D-02-0.278D+00 0.127D+01
 Coeff-En:   0.000D+00 0.000D+00 0.000D+00 0.000D+00 0.100D+01
 Coeff:      0.941D-03 0.359D-02 0.713D-02-0.278D+00 0.127D+01
 Gap=     0.968 Goal=   None    Shift=    0.000
 RMSDP=8.99D-05 MaxDP=4.66D-04 DE=-7.33D-05 OVMax= 0.00D+00

 Cycle   6  Pass 1  IDiag  1:
 E= -116.828444246672     Delta-E=       -0.000002052601 Rises=F Damp=F
 DIIS: error= 3.74D-05 at cycle   6 NSaved=   6.
 NSaved= 6 IEnMin= 6 EnMin= -116.828444246672     IErMin= 6 ErrMin= 3.74D-05
 ErrMax= 3.74D-05 EMaxC= 1.00D-01 BMatC= 4.48D-08 BMatP= 1.20D-06
 IDIUse=1 WtCom= 1.00D+00 WtEn= 0.00D+00
 Coeff-Com: -0.102D-04-0.167D-03-0.312D-02 0.875D-02-0.731D-01 0.107D+01
 Coeff:     -0.102D-04-0.167D-03-0.312D-02 0.875D-02-0.731D-01 0.107D+01
 Gap=     0.969 Goal=   None    Shift=    0.000
 RMSDP=1.37D-05 MaxDP=9.53D-05 DE=-2.05D-06 OVMax= 0.00D+00

 Cycle   7  Pass 1  IDiag  1:
 E= -116.828444304599     Delta-E=       -0.000000057927 Rises=F Damp=F
 DIIS: error= 4.31D-06 at cycle   7 NSaved=   7.
 NSaved= 7 IEnMin= 7 EnMin= -116.828444304599     IErMin= 7 ErrMin= 4.31D-06
 ErrMax= 4.31D-06 EMaxC= 1.00D-01 BMatC= 6.76D-10 BMatP= 4.48D-08
 IDIUse=1 WtCom= 1.00D+00 WtEn= 0.00D+00
 Coeff-Com: -0.389D-04-0.130D-03-0.353D-03 0.102D-01-0.457D-01 0.402D-01
 Coeff-Com:  0.996D+00
 Coeff:     -0.389D-04-0.130D-03-0.353D-03 0.102D-01-0.457D-01 0.402D-01
 Coeff:      0.996D+00
 Gap=     0.969 Goal=   None    Shift=    0.000
 RMSDP=1.95D-06 MaxDP=9.74D-06 DE=-5.79D-08 OVMax= 0.00D+00

 Cycle   8  Pass 1  IDiag  1:
 E= -116.828444305822     Delta-E=       -0.000000001223 Rises=F Damp=F
 DIIS: error= 1.51D-06 at cycle   8 NSaved=   8.
 NSaved= 8 IEnMin= 8 EnMin= -116.828444305822     IErMin= 8 ErrMin= 1.51D-06
 ErrMax= 1.51D-06 EMaxC= 1.00D-01 BMatC= 7.00D-11 BMatP= 6.76D-10
 IDIUse=1 WtCom= 1.00D+00 WtEn= 0.00D+00
 Coeff-Com: -0.323D-06 0.732D-05 0.225D-03-0.202D-03 0.168D-02-0.451D-01
 Coeff-Com: -0.887D-01 0.113D+01
 Coeff:     -0.323D-06 0.732D-05 0.225D-03-0.202D-03 0.168D-02-0.451D-01
 Coeff:     -0.887D-01 0.113D+01
 Gap=     0.969 Goal=   None    Shift=    0.000
 RMSDP=6.59D-07 MaxDP=5.03D-06 DE=-1.22D-09 OVMax= 0.00D+00

 Cycle   9  Pass 1  IDiag  1:
 E= -116.828444305937     Delta-E=       -0.000000000115 Rises=F Damp=F
 DIIS: error= 1.06D-07 at cycle   9 NSaved=   9.
 NSaved= 9 IEnMin= 9 EnMin= -116.828444305937     IErMin= 9 ErrMin= 1.06D-07
 ErrMax= 1.06D-07 EMaxC= 1.00D-01 BMatC= 3.26D-13 BMatP= 7.00D-11
 IDIUse=1 WtCom= 1.00D+00 WtEn= 0.00D+00
 Coeff-Com:  0.285D-06-0.115D-05-0.554D-04-0.101D-04-0.123D-03 0.113D-01
 Coeff-Com:  0.128D-01-0.301D+00 0.128D+01
 Coeff:      0.285D-06-0.115D-05-0.554D-04-0.101D-04-0.123D-03 0.113D-01
 Coeff:      0.128D-01-0.301D+00 0.128D+01
 Gap=     0.969 Goal=   None    Shift=    0.000
 RMSDP=5.99D-08 MaxDP=3.72D-07 DE=-1.15D-10 OVMax= 0.00D+00

 Cycle  10  Pass 1  IDiag  1:
 E= -116.828444305937     Delta-E=       -0.000000000001 Rises=F Damp=F
 DIIS: error= 1.52D-08 at cycle  10 NSaved=  10.
 NSaved=10 IEnMin=10 EnMin= -116.828444305937     IErMin=10 ErrMin= 1.52D-08
 ErrMax= 1.52D-08 EMaxC= 1.00D-01 BMatC= 4.60D-15 BMatP= 3.26D-13
 IDIUse=1 WtCom= 1.00D+00 WtEn= 0.00D+00
 Coeff-Com: -0.134D-08 0.245D-06 0.702D-05-0.646D-05 0.604D-04-0.151D-02
 Coeff-Com: -0.179D-02 0.411D-01-0.209D+00 0.117D+01
 Coeff:     -0.134D-08 0.245D-06 0.702D-05-0.646D-05 0.604D-04-0.151D-02
 Coeff:     -0.179D-02 0.411D-01-0.209D+00 0.117D+01
 Gap=     0.969 Goal=   None    Shift=    0.000
 RMSDP=5.23D-09 MaxDP=2.68D-08 DE=-7.67D-13 OVMax= 0.00D+00

 SCF Done:  E(RHF) =  -116.828444306     A.U. after   10 cycles
             Convg  =    0.5234D-08             -V/T =  2.0074
 KE= 1.159711619568D+02 PE=-4.361674791467D+02 EE= 1.208788416763D+02
 Leave Link  502 at Tue Aug 13 01:14:51 2024, MaxMem=   33554432 cpu:       0.1
 (Enter /programs/64bit/g09/g09-gfortran/bin/l108.exe)
 Scan completed.

 Summary of the potential surface scan:
   N      t1          SCF    
 ----  ---------  -----------
    1   126.9500   -116.84501
    2   146.9500   -116.82844
    3   166.9500   -116.77525
    4   186.9500   -116.67587
    5   206.9500   -116.52357
    6   226.9500   -116.18891
    7   246.9500   -115.15552
    8   266.9500   -115.50726
    9   286.9500   -116.27692
   10   306.9500   -116.38446
   11   326.9500   -116.27692
   12   346.9500   -115.50726
   13   366.9500   -115.15552
   14   386.9500   -116.18891
   15   406.9500   -116.52357
   16   426.9500   -116.67587
   17   446.9500   -116.77525
   18   466.9500   -116.82844
   19   486.9500   -116.84501
   20   506.9500   -116.82844
 ----  ---------  -----------
  
 Leave Link  108 at Tue Aug 13 01:14:51 2024, MaxMem=   33554432 cpu:       0.0
 (Enter /programs/64bit/g09/g09-gfortran/bin/l9999.exe)
 1\1\GINC-MOLMOD\Scan\RHF\STO-3G\C3H8\OSPITE\13-Aug-2024\1\\#p scan pop
 =full gfinput\\propane\\0,1\C\C,1,dCC\C,1,dCC,2,aCC\H,1,d1,2,a1,3,t1,0
 \H,1,d1,2,a1,4,t2,0\H,2,d2,1,a2,3,t3,0\H,3,d2,1,a2,2,t3,0\H,2,d3,1,a3,
 6,t4,0\H,2,d3,1,a3,6,t5,0\H,3,d3,1,a3,7,t4,0\H,3,d3,1,a3,7,t5,0\\dCC=1
 .526\aCC=112.4\d1=1.096\a1=109.56\t1=126.95,s,19,20.\t2=106.1\d2=1.089
 \a2=111.8\t3=180.\d3=1.094\a3=110.6\t4=107.3\t5=-107.3\\Version=EM64L-
 G09RevA.02\State=1-A\HF=-116.8450115,-116.8284443,-116.7752455,-116.67
 58728,-116.523571,-116.188914,-115.1555157,-115.5072594,-116.2769153,-
 116.3844585,-116.2769153,-115.5072594,-115.1555157,-116.188914,-116.52
 3571,-116.6758728,-116.7752455,-116.8284443,-116.8450115,-116.8284443\
 RMSD=2.401e-09,5.234e-09,8.704e-09,4.356e-09,3.559e-09,6.233e-09,2.930
 e-09,3.852e-09,1.635e-09,6.299e-09,1.346e-09,7.453e-09,2.803e-09,6.728
 e-09,4.439e-09,7.004e-09,8.744e-09,4.645e-09,8.287e-09,5.234e-09\PG=C0
 1 [X(C3H8)]\\@


 You don't have to suffer to be a poet.
 Adolescence is enough suffering for anyone.
                             -- John Ciardi
 Job cpu time:  0 days  0 hours  0 minutes 29.6 seconds.
 File lengths (MBytes):  RWF=      5 Int=      0 D2E=      0 Chk=      1 Scr=      1
 Normal termination of Gaussian 09 at Tue Aug 13 01:14:51 2024.
