 Entering Gaussian System, Link 0=/g100_work/pMI24_ChiCa/g09d1/g09d01/d01/build-node-6-2-59348/src/main/g09
 Input=geom.com
 Output=geom.log
 Initial command:
 /g100_work/pMI24_ChiCa/g09d1/g09d01/d01/build-node-6-2-59348/src/main/l1.exe "/g100_scratch/userexternal/ecabiati/g16_14387465/Gau-12447.inp" -scrdir="/g100_scratch/userexternal/ecabiati/g16_14387465/"
 Entering Link 1 = /g100_work/pMI24_ChiCa/g09d1/g09d01/d01/build-node-6-2-59348/src/main/l1.exe PID=     12448.
  
 Copyright (c) 1988,1990,1992,1993,1995,1998,2003,2009,2013,
            Gaussian, Inc.  All Rights Reserved.
  
 This is part of the Gaussian(R) 09 program.  It is based on
 the Gaussian(R) 03 system (copyright 2003, Gaussian, Inc.),
 the Gaussian(R) 98 system (copyright 1998, Gaussian, Inc.),
 the Gaussian(R) 94 system (copyright 1995, Gaussian, Inc.),
 the Gaussian 92(TM) system (copyright 1992, Gaussian, Inc.),
 the Gaussian 90(TM) system (copyright 1990, Gaussian, Inc.),
 the Gaussian 88(TM) system (copyright 1988, Gaussian, Inc.),
 the Gaussian 86(TM) system (copyright 1986, Carnegie Mellon
 University), and the Gaussian 82(TM) system (copyright 1983,
 Carnegie Mellon University). Gaussian is a federally registered
 trademark of Gaussian, Inc.
  
 This software contains proprietary and confidential information,
 including trade secrets, belonging to Gaussian, Inc.
  
 This software is provided under written license and may be
 used, copied, transmitted, or stored only in accord with that
 written license.
  
 The following legend is applicable only to US Government
 contracts under FAR:
  
                    RESTRICTED RIGHTS LEGEND
  
 Use, reproduction and disclosure by the US Government is
 subject to restrictions as set forth in subparagraphs (a)
 and (c) of the Commercial Computer Software - Restricted
 Rights clause in FAR 52.227-19.
  
 Gaussian, Inc.
 340 Quinnipiac St., Bldg. 40, Wallingford CT 06492
  
  
 ---------------------------------------------------------------
 Warning -- This program may not be used in any manner that
 competes with the business of Gaussian, Inc. or will provide
 assistance to any competitor of Gaussian, Inc.  The licensee
 of this program is prohibited from giving any competitor of
 Gaussian, Inc. access to this program.  By using this program,
 the user acknowledges that Gaussian, Inc. is engaged in the
 business of creating and licensing software in the field of
 computational chemistry and represents and warrants to the
 licensee that it is not a competitor of Gaussian, Inc. and that
 it will not use this program in any manner prohibited above.
 ---------------------------------------------------------------
  

 Cite this work as:
 Gaussian 09, Revision D.01,
 M. J. Frisch, G. W. Trucks, H. B. Schlegel, G. E. Scuseria, 
 M. A. Robb, J. R. Cheeseman, G. Scalmani, V. Barone, B. Mennucci, 
 G. A. Petersson, H. Nakatsuji, M. Caricato, X. Li, H. P. Hratchian, 
 A. F. Izmaylov, J. Bloino, G. Zheng, J. L. Sonnenberg, M. Hada, 
 M. Ehara, K. Toyota, R. Fukuda, J. Hasegawa, M. Ishida, T. Nakajima, 
 Y. Honda, O. Kitao, H. Nakai, T. Vreven, J. A. Montgomery, Jr., 
 J. E. Peralta, F. Ogliaro, M. Bearpark, J. J. Heyd, E. Brothers, 
 K. N. Kudin, V. N. Staroverov, T. Keith, R. Kobayashi, J. Normand, 
 K. Raghavachari, A. Rendell, J. C. Burant, S. S. Iyengar, J. Tomasi, 
 M. Cossi, N. Rega, J. M. Millam, M. Klene, J. E. Knox, J. B. Cross, 
 V. Bakken, C. Adamo, J. Jaramillo, R. Gomperts, R. E. Stratmann, 
 O. Yazyev, A. J. Austin, R. Cammi, C. Pomelli, J. W. Ochterski, 
 R. L. Martin, K. Morokuma, V. G. Zakrzewski, G. A. Voth, 
 P. Salvador, J. J. Dannenberg, S. Dapprich, A. D. Daniels, 
 O. Farkas, J. B. Foresman, J. V. Ortiz, J. Cioslowski, 
 and D. J. Fox, Gaussian, Inc., Wallingford CT, 2013.
 
 ******************************************
 Gaussian 09:  EM64L-G09RevD.01 24-Apr-2013
                12-Sep-2024 
 ******************************************
 %nproc=24
 Will use up to   24 processors via shared memory.
 %mem=2Gb
 ---------------------------------------------------
 #p B3LYP/6-31+g(d,p) opt(internal) pop=full gfinput
 ---------------------------------------------------
 1/10=7,14=-1,18=40,26=3,38=1/1,3;
 2/12=2,17=6,18=5,29=3,40=1/2;
 3/5=1,6=6,7=111,11=2,16=1,24=10,25=1,30=1,71=1,74=-5/1,2,3;
 4//1;
 5/5=2,38=5/2;
 6/7=3,28=1/1;
 7/29=1/1,2,3,16;
 1/10=7,14=-1,18=40,26=3/3(2);
 2/29=3/2;
 99//99;
 2/29=3/2;
 3/5=1,6=6,7=111,11=2,16=1,25=1,30=1,71=1,74=-5/1,2,3;
 4/5=5,16=3,69=1/1;
 5/5=2,38=5/2;
 7//1,2,3,16;
 1/14=-1,18=40,26=3/3(-5);
 2/29=3/2;
 6/7=3,19=2,28=1/1;
 99/9=1/99;
 Leave Link    1 at Thu Sep 12 00:17:01 2024, MaxMem=   268435456 cpu:         0.2
 (Enter /g100_work/pMI24_ChiCa/g09d1/g09d01/d01/build-node-6-2-59348/src/main/l101.exe)
 ---------------------
 tetramethylsilane opt
 ---------------------
 Symbolic Z-matrix:
 Charge =  0 Multiplicity = 1
 si
 c                    1    csi2
 c                    1    csi3     2    csic3
 c                    1    csi4     2    csic4    3    dih4     0
 c                    1    csi5     3    csic5    2    dih5     0
 h                    3    hc6      1    hcsi6    2    dih6     0
 h                    3    hc7      1    hcsi7    6    dih7     0
 h                    3    hc8      1    hcsi8    6    dih8     0
 h                    2    hc9      1    hcsi9    3    dih9     0
 h                    2    hc10     1    hcsi10   9    dih10    0
 h                    2    hc11     1    hcsi11   9    dih11    0
 h                    5    hc12     1    hcsi12   3    dih12    0
 h                    5    hc13     1    hcsi13   12   dih13    0
 h                    5    hc14     1    hcsi14   12   dih14    0
 h                    4    hc15     1    hcsi15   2    dih15    0
 h                    4    hc16     1    hcsi16   15   dih16    0
 h                    4    hc17     1    hcsi17   15   dih17    0
       Variables:
  csi2                  1.91                     
  csi3                  1.91                     
  csic3               109.471                    
  csi4                  1.91                     
  csic4               109.471                    
  dih4                120.                       
  csi5                  1.91                     
  csic5               109.471                    
  dih5                120.                       
  hc6                   1.07                     
  hcsi6               109.471                    
  dih6                180.                       
  hc7                   1.07                     
  hcsi7               109.471                    
  dih7                120.                       
  hc8                   1.07                     
  hcsi8               109.471                    
  dih8                240.                       
  hc9                   1.07                     
  hcsi9               109.471                    
  dih9                180.                       
  hc10                  1.07                     
  hcsi10              109.471                    
  dih10               120.                       
  hc11                  1.07                     
  hcsi11              109.471                    
  dih11               240.                       
  hc12                  1.07                     
  hcsi12              109.471                    
  dih12               180.                       
  hc13                  1.07                     
  hcsi13              109.471                    
  dih13               120.                       
  hc14                  1.07                     
  hcsi14              109.471                    
  dih14               240.                       
  hc15                  1.07                     
  hcsi15              109.471                    
  dih15               180.                       
  hc16                  1.07                     
  hcsi16              109.471                    
  dih16               120.                       
  hc17                  1.07                     
  hcsi17              109.471                    
  dih17               240.                       
 
    15 tetrahedral angles replaced.
 NAtoms=     17 NQM=       17 NQMF=       0 NMMI=      0 NMMIF=      0
                NMic=       0 NMicF=      0.
   15 tetrahedral angles replaced.
                    Isotopes and Nuclear Properties:
 (Nuclear quadrupole moments (NQMom) in fm**2, nuclear magnetic moments (NMagM)
  in nuclear magnetons)

  Atom         1           2           3           4           5           6           7           8           9          10
 IAtWgt=          28          12          12          12          12           1           1           1           1           1
 AtmWgt=  27.9769284  12.0000000  12.0000000  12.0000000  12.0000000   1.0078250   1.0078250   1.0078250   1.0078250   1.0078250
 NucSpn=           0           0           0           0           0           1           1           1           1           1
 AtZEff=   0.0000000   0.0000000   0.0000000   0.0000000   0.0000000   0.0000000   0.0000000   0.0000000   0.0000000   0.0000000
 NQMom=    0.0000000   0.0000000   0.0000000   0.0000000   0.0000000   0.0000000   0.0000000   0.0000000   0.0000000   0.0000000
 NMagM=    0.0000000   0.0000000   0.0000000   0.0000000   0.0000000   2.7928460   2.7928460   2.7928460   2.7928460   2.7928460
 AtZNuc=  14.0000000   6.0000000   6.0000000   6.0000000   6.0000000   1.0000000   1.0000000   1.0000000   1.0000000   1.0000000

  Atom        11          12          13          14          15          16          17
 IAtWgt=           1           1           1           1           1           1           1
 AtmWgt=   1.0078250   1.0078250   1.0078250   1.0078250   1.0078250   1.0078250   1.0078250
 NucSpn=           1           1           1           1           1           1           1
 AtZEff=   0.0000000   0.0000000   0.0000000   0.0000000   0.0000000   0.0000000   0.0000000
 NQMom=    0.0000000   0.0000000   0.0000000   0.0000000   0.0000000   0.0000000   0.0000000
 NMagM=    2.7928460   2.7928460   2.7928460   2.7928460   2.7928460   2.7928460   2.7928460
 AtZNuc=   1.0000000   1.0000000   1.0000000   1.0000000   1.0000000   1.0000000   1.0000000
 Leave Link  101 at Thu Sep 12 00:17:01 2024, MaxMem=   268435456 cpu:         0.2
 (Enter /g100_work/pMI24_ChiCa/g09d1/g09d01/d01/build-node-6-2-59348/src/main/l103.exe)

 GradGradGradGradGradGradGradGradGradGradGradGradGradGradGradGradGradGrad
 Berny optimization.
 Initialization pass.
                       ----------------------------
                       !    Initial Parameters    !
                       ! (Angstroms and Degrees)  !
 ----------------------                            ----------------------
 !      Name          Value   Derivative information (Atomic Units)     !
 ------------------------------------------------------------------------
 !      csi2         1.91     estimate D2E/DX2                          !
 !      csi3         1.91     estimate D2E/DX2                          !
 !      csic3      109.4712   estimate D2E/DX2                          !
 !      csi4         1.91     estimate D2E/DX2                          !
 !      csic4      109.4712   estimate D2E/DX2                          !
 !      dih4       120.0      estimate D2E/DX2                          !
 !      csi5         1.91     estimate D2E/DX2                          !
 !      csic5      109.4712   estimate D2E/DX2                          !
 !      dih5       120.0      estimate D2E/DX2                          !
 !       hc6         1.07     estimate D2E/DX2                          !
 !      hcsi6      109.4712   estimate D2E/DX2                          !
 !      dih6       180.0      estimate D2E/DX2                          !
 !       hc7         1.07     estimate D2E/DX2                          !
 !      hcsi7      109.4712   estimate D2E/DX2                          !
 !      dih7       120.0      estimate D2E/DX2                          !
 !       hc8         1.07     estimate D2E/DX2                          !
 !      hcsi8      109.4712   estimate D2E/DX2                          !
 !      dih8       240.0      estimate D2E/DX2                          !
 !       hc9         1.07     estimate D2E/DX2                          !
 !      hcsi9      109.4712   estimate D2E/DX2                          !
 !      dih9       180.0      estimate D2E/DX2                          !
 !      hc10         1.07     estimate D2E/DX2                          !
 !     hcsi10      109.4712   estimate D2E/DX2                          !
 !      dih10      120.0      estimate D2E/DX2                          !
 !      hc11         1.07     estimate D2E/DX2                          !
 !     hcsi11      109.4712   estimate D2E/DX2                          !
 !      dih11      240.0      estimate D2E/DX2                          !
 !      hc12         1.07     estimate D2E/DX2                          !
 !     hcsi12      109.4712   estimate D2E/DX2                          !
 !      dih12      180.0      estimate D2E/DX2                          !
 !      hc13         1.07     estimate D2E/DX2                          !
 !     hcsi13      109.4712   estimate D2E/DX2                          !
 !      dih13      120.0      estimate D2E/DX2                          !
 !      hc14         1.07     estimate D2E/DX2                          !
 !     hcsi14      109.4712   estimate D2E/DX2                          !
 !      dih14      240.0      estimate D2E/DX2                          !
 !      hc15         1.07     estimate D2E/DX2                          !
 !     hcsi15      109.4712   estimate D2E/DX2                          !
 !      dih15      180.0      estimate D2E/DX2                          !
 !      hc16         1.07     estimate D2E/DX2                          !
 !     hcsi16      109.4712   estimate D2E/DX2                          !
 !      dih16      120.0      estimate D2E/DX2                          !
 !      hc17         1.07     estimate D2E/DX2                          !
 !     hcsi17      109.4712   estimate D2E/DX2                          !
 !      dih17      240.0      estimate D2E/DX2                          !
 ------------------------------------------------------------------------
 Trust Radius=3.00D-01 FncErr=1.00D-07 GrdErr=1.00D-06
 Number of steps in this run=     55 maximum allowed number of steps=    100.
 GradGradGradGradGradGradGradGradGradGradGradGradGradGradGradGradGradGrad

 Leave Link  103 at Thu Sep 12 00:17:02 2024, MaxMem=   268435456 cpu:         0.1
 (Enter /g100_work/pMI24_ChiCa/g09d1/g09d01/d01/build-node-6-2-59348/src/main/l202.exe)
 ---------------------------------------------------------------------------------------------------
                            Z-MATRIX (ANGSTROMS AND DEGREES)
   CD    Cent   Atom    N1       Length/X        N2       Alpha/Y        N3        Beta/Z          J
 ---------------------------------------------------------------------------------------------------
      1      1  Si
      2      2  C        1   1.910000(     1)
      3      3  C        1   1.910000(     2)      2  109.471(    17)
      4      4  C        1   1.910000(     3)      2  109.471(    18)      3  120.000(    32)      0
      5      5  C        1   1.910000(     4)      3  109.471(    19)      2  120.000(    33)      0
      6      6  H        3   1.070000(     5)      1  109.471(    20)      2  180.000(    34)      0
      7      7  H        3   1.070000(     6)      1  109.471(    21)      6  120.000(    35)      0
      8      8  H        3   1.070000(     7)      1  109.471(    22)      6  240.000(    36)      0
      9      9  H        2   1.070000(     8)      1  109.471(    23)      3  180.000(    37)      0
     10     10  H        2   1.070000(     9)      1  109.471(    24)      9  120.000(    38)      0
     11     11  H        2   1.070000(    10)      1  109.471(    25)      9  240.000(    39)      0
     12     12  H        5   1.070000(    11)      1  109.471(    26)      3  180.000(    40)      0
     13     13  H        5   1.070000(    12)      1  109.471(    27)     12  120.000(    41)      0
     14     14  H        5   1.070000(    13)      1  109.471(    28)     12  240.000(    42)      0
     15     15  H        4   1.070000(    14)      1  109.471(    29)      2  180.000(    43)      0
     16     16  H        4   1.070000(    15)      1  109.471(    30)     15  120.000(    44)      0
     17     17  H        4   1.070000(    16)      1  109.471(    31)     15  240.000(    45)      0
 ---------------------------------------------------------------------------------------------------
                         Z-Matrix orientation:                         
 ---------------------------------------------------------------------
 Center     Atomic      Atomic             Coordinates (Angstroms)
 Number     Number       Type             X           Y           Z
 ---------------------------------------------------------------------
      1         14           0        0.000000    0.000000    0.000000
      2          6           0        0.000000    0.000000    1.910000
      3          6           0        1.800765    0.000000   -0.636667
      4          6           0       -0.900383   -1.559508   -0.636667
      5          6           0       -0.900383    1.559508   -0.636667
      6          1           0        1.800765   -0.000000   -1.706667
      7          1           0        2.305168    0.873651   -0.280000
      8          1           0        2.305168   -0.873651   -0.280000
      9          1           0       -1.008806    0.000000    2.266667
     10          1           0        0.504403   -0.873651    2.266667
     11          1           0        0.504403    0.873651    2.266667
     12          1           0       -1.909188    1.559508   -0.280000
     13          1           0       -0.395980    2.433160   -0.280000
     14          1           0       -0.900383    1.559508   -1.706667
     15          1           0       -0.900383   -1.559508   -1.706667
     16          1           0       -0.395980   -2.433160   -0.280000
     17          1           0       -1.909188   -1.559508   -0.280000
 ---------------------------------------------------------------------
                    Distance matrix (angstroms):
                    1          2          3          4          5
     1  Si   0.000000
     2  C    1.910000   0.000000
     3  C    1.910000   3.119017   0.000000
     4  C    1.910000   3.119017   3.119017   0.000000
     5  C    1.910000   3.119017   3.119017   3.119017   0.000000
     6  H    2.481021   4.040177   1.070000   3.297449   3.297449
     7  H    2.481021   3.297449   1.070000   4.040177   3.297449
     8  H    2.481021   3.297449   1.070000   3.297449   4.040177
     9  H    2.481021   1.070000   4.040177   3.297449   3.297449
    10  H    2.481021   1.070000   3.297449   3.297449   4.040177
    11  H    2.481021   1.070000   3.297449   4.040177   3.297449
    12  H    2.481021   3.297449   4.040177   3.297449   1.070000
    13  H    2.481021   3.297449   3.297449   4.040177   1.070000
    14  H    2.481021   4.040177   3.297449   3.297449   1.070000
    15  H    2.481021   4.040177   3.297449   1.070000   3.297449
    16  H    2.481021   3.297449   3.297449   1.070000   4.040177
    17  H    2.481021   3.297449   4.040177   1.070000   3.297449
                    6          7          8          9         10
     6  H    0.000000
     7  H    1.747303   0.000000
     8  H    1.747303   1.747303   0.000000
     9  H    4.866320   4.269801   4.269801   0.000000
    10  H    4.269801   3.575099   3.119017   1.747303   0.000000
    11  H    4.269801   3.119017   3.575099   1.747303   1.747303
    12  H    4.269801   4.269801   4.866320   3.119017   4.269801
    13  H    3.575099   3.119017   4.269801   3.575099   4.269801
    14  H    3.119017   3.575099   4.269801   4.269801   4.866320
    15  H    3.119017   4.269801   3.575099   4.269801   4.269801
    16  H    3.575099   4.269801   3.119017   3.575099   3.119017
    17  H    4.269801   4.866320   4.269801   3.119017   3.575099
                   11         12         13         14         15
    11  H    0.000000
    12  H    3.575099   0.000000
    13  H    3.119017   1.747303   0.000000
    14  H    4.269801   1.747303   1.747303   0.000000
    15  H    4.866320   3.575099   4.269801   3.119017   0.000000
    16  H    4.269801   4.269801   4.866320   4.269801   1.747303
    17  H    4.269801   3.119017   4.269801   3.575099   1.747303
                   16         17
    16  H    0.000000
    17  H    1.747303   0.000000
 Stoichiometry    C4H12Si
 Framework group  TD[O(Si),4C3(C),6SGD(H2)]
 Deg. of freedom     3
 Full point group                 TD      NOp  24
 Largest Abelian subgroup         D2      NOp   4
 Largest concise Abelian subgroup D2      NOp   4
                         Standard orientation:                         
 ---------------------------------------------------------------------
 Center     Atomic      Atomic             Coordinates (Angstroms)
 Number     Number       Type             X           Y           Z
 ---------------------------------------------------------------------
      1         14           0        0.000000    0.000000    0.000000
      2          6           0       -1.102739   -1.102739    1.102739
      3          6           0        1.102739    1.102739    1.102739
      4          6           0        1.102739   -1.102739   -1.102739
      5          6           0       -1.102739    1.102739   -1.102739
      6          1           0        1.720504    1.720504    0.484974
      7          1           0        0.484974    1.720504    1.720504
      8          1           0        1.720504    0.484974    1.720504
      9          1           0       -1.720504   -1.720504    0.484974
     10          1           0       -0.484974   -1.720504    1.720504
     11          1           0       -1.720504   -0.484974    1.720504
     12          1           0       -1.720504    0.484974   -1.720504
     13          1           0       -1.720504    1.720504   -0.484974
     14          1           0       -0.484974    1.720504   -1.720504
     15          1           0        1.720504   -0.484974   -1.720504
     16          1           0        1.720504   -1.720504   -0.484974
     17          1           0        0.484974   -1.720504   -1.720504
 ---------------------------------------------------------------------
 Rotational constants (GHZ):      3.0377127      3.0377127      3.0377127
 Leave Link  202 at Thu Sep 12 00:17:02 2024, MaxMem=   268435456 cpu:         0.2
 (Enter /g100_work/pMI24_ChiCa/g09d1/g09d01/d01/build-node-6-2-59348/src/main/l301.exe)
 Standard basis: 6-31+G(d,p) (6D, 7F)
 Ernie: Thresh=  0.10000D-02 Tol=  0.10000D-05 Strict=F.
 AO basis set in the form of general basis input (Overlap normalization):
      1 0
 S   6 1.00       0.000000000000
      0.1611590000D+05  0.1959480216D-02
      0.2425580000D+04  0.1492880164D-01
      0.5538670000D+03  0.7284780801D-01
      0.1563400000D+03  0.2461300271D+00
      0.5006830000D+02  0.4859140535D+00
      0.1701780000D+02  0.3250020358D+00
 SP   6 1.00       0.000000000000
      0.2927180000D+03 -0.2780941415D-02  0.4438264521D-02
      0.6987310000D+02 -0.3571461817D-01  0.3266793328D-01
      0.2233630000D+02 -0.1149850585D+00  0.1347211372D+00
      0.8150390000D+01  0.9356344760D-01  0.3286783348D+00
      0.3134580000D+01  0.6030173068D+00  0.4496404580D+00
      0.1225430000D+01  0.4189592131D+00  0.2613722662D+00
 SP   3 1.00       0.000000000000
      0.1727380000D+01 -0.2446310042D+00 -0.1779510605D-01
      0.5729220000D+00  0.4315737717D-02  0.2535390863D+00
      0.2221920000D+00  0.1098184508D+01  0.8006692724D+00
 SP   1 1.00       0.000000000000
      0.7783690000D-01  0.1000000000D+01  0.1000000000D+01
 SP   1 1.00       0.000000000000
      0.3310000000D-01  0.1000000000D+01  0.1000000000D+01
 D   1 1.00       0.000000000000
      0.4500000000D+00  0.1000000000D+01
 ****
      2 0
 S   6 1.00       0.000000000000
      0.3047524880D+04  0.1834737132D-02
      0.4573695180D+03  0.1403732281D-01
      0.1039486850D+03  0.6884262226D-01
      0.2921015530D+02  0.2321844432D+00
      0.9286662960D+01  0.4679413484D+00
      0.3163926960D+01  0.3623119853D+00
 SP   3 1.00       0.000000000000
      0.7868272350D+01 -0.1193324198D+00  0.6899906659D-01
      0.1881288540D+01 -0.1608541517D+00  0.3164239610D+00
      0.5442492580D+00  0.1143456438D+01  0.7443082909D+00
 SP   1 1.00       0.000000000000
      0.1687144782D+00  0.1000000000D+01  0.1000000000D+01
 SP   1 1.00       0.000000000000
      0.4380000000D-01  0.1000000000D+01  0.1000000000D+01
 D   1 1.00       0.000000000000
      0.8000000000D+00  0.1000000000D+01
 ****
      3 0
 S   6 1.00       0.000000000000
      0.3047524880D+04  0.1834737132D-02
      0.4573695180D+03  0.1403732281D-01
      0.1039486850D+03  0.6884262226D-01
      0.2921015530D+02  0.2321844432D+00
      0.9286662960D+01  0.4679413484D+00
      0.3163926960D+01  0.3623119853D+00
 SP   3 1.00       0.000000000000
      0.7868272350D+01 -0.1193324198D+00  0.6899906659D-01
      0.1881288540D+01 -0.1608541517D+00  0.3164239610D+00
      0.5442492580D+00  0.1143456438D+01  0.7443082909D+00
 SP   1 1.00       0.000000000000
      0.1687144782D+00  0.1000000000D+01  0.1000000000D+01
 SP   1 1.00       0.000000000000
      0.4380000000D-01  0.1000000000D+01  0.1000000000D+01
 D   1 1.00       0.000000000000
      0.8000000000D+00  0.1000000000D+01
 ****
      4 0
 S   6 1.00       0.000000000000
      0.3047524880D+04  0.1834737132D-02
      0.4573695180D+03  0.1403732281D-01
      0.1039486850D+03  0.6884262226D-01
      0.2921015530D+02  0.2321844432D+00
      0.9286662960D+01  0.4679413484D+00
      0.3163926960D+01  0.3623119853D+00
 SP   3 1.00       0.000000000000
      0.7868272350D+01 -0.1193324198D+00  0.6899906659D-01
      0.1881288540D+01 -0.1608541517D+00  0.3164239610D+00
      0.5442492580D+00  0.1143456438D+01  0.7443082909D+00
 SP   1 1.00       0.000000000000
      0.1687144782D+00  0.1000000000D+01  0.1000000000D+01
 SP   1 1.00       0.000000000000
      0.4380000000D-01  0.1000000000D+01  0.1000000000D+01
 D   1 1.00       0.000000000000
      0.8000000000D+00  0.1000000000D+01
 ****
      5 0
 S   6 1.00       0.000000000000
      0.3047524880D+04  0.1834737132D-02
      0.4573695180D+03  0.1403732281D-01
      0.1039486850D+03  0.6884262226D-01
      0.2921015530D+02  0.2321844432D+00
      0.9286662960D+01  0.4679413484D+00
      0.3163926960D+01  0.3623119853D+00
 SP   3 1.00       0.000000000000
      0.7868272350D+01 -0.1193324198D+00  0.6899906659D-01
      0.1881288540D+01 -0.1608541517D+00  0.3164239610D+00
      0.5442492580D+00  0.1143456438D+01  0.7443082909D+00
 SP   1 1.00       0.000000000000
      0.1687144782D+00  0.1000000000D+01  0.1000000000D+01
 SP   1 1.00       0.000000000000
      0.4380000000D-01  0.1000000000D+01  0.1000000000D+01
 D   1 1.00       0.000000000000
      0.8000000000D+00  0.1000000000D+01
 ****
      6 0
 S   3 1.00       0.000000000000
      0.1873113696D+02  0.3349460434D-01
      0.2825394365D+01  0.2347269535D+00
      0.6401216923D+00  0.8137573261D+00
 S   1 1.00       0.000000000000
      0.1612777588D+00  0.1000000000D+01
 P   1 1.00       0.000000000000
      0.1100000000D+01  0.1000000000D+01
 ****
      7 0
 S   3 1.00       0.000000000000
      0.1873113696D+02  0.3349460434D-01
      0.2825394365D+01  0.2347269535D+00
      0.6401216923D+00  0.8137573261D+00
 S   1 1.00       0.000000000000
      0.1612777588D+00  0.1000000000D+01
 P   1 1.00       0.000000000000
      0.1100000000D+01  0.1000000000D+01
 ****
      8 0
 S   3 1.00       0.000000000000
      0.1873113696D+02  0.3349460434D-01
      0.2825394365D+01  0.2347269535D+00
      0.6401216923D+00  0.8137573261D+00
 S   1 1.00       0.000000000000
      0.1612777588D+00  0.1000000000D+01
 P   1 1.00       0.000000000000
      0.1100000000D+01  0.1000000000D+01
 ****
      9 0
 S   3 1.00       0.000000000000
      0.1873113696D+02  0.3349460434D-01
      0.2825394365D+01  0.2347269535D+00
      0.6401216923D+00  0.8137573261D+00
 S   1 1.00       0.000000000000
      0.1612777588D+00  0.1000000000D+01
 P   1 1.00       0.000000000000
      0.1100000000D+01  0.1000000000D+01
 ****
     10 0
 S   3 1.00       0.000000000000
      0.1873113696D+02  0.3349460434D-01
      0.2825394365D+01  0.2347269535D+00
      0.6401216923D+00  0.8137573261D+00
 S   1 1.00       0.000000000000
      0.1612777588D+00  0.1000000000D+01
 P   1 1.00       0.000000000000
      0.1100000000D+01  0.1000000000D+01
 ****
     11 0
 S   3 1.00       0.000000000000
      0.1873113696D+02  0.3349460434D-01
      0.2825394365D+01  0.2347269535D+00
      0.6401216923D+00  0.8137573261D+00
 S   1 1.00       0.000000000000
      0.1612777588D+00  0.1000000000D+01
 P   1 1.00       0.000000000000
      0.1100000000D+01  0.1000000000D+01
 ****
     12 0
 S   3 1.00       0.000000000000
      0.1873113696D+02  0.3349460434D-01
      0.2825394365D+01  0.2347269535D+00
      0.6401216923D+00  0.8137573261D+00
 S   1 1.00       0.000000000000
      0.1612777588D+00  0.1000000000D+01
 P   1 1.00       0.000000000000
      0.1100000000D+01  0.1000000000D+01
 ****
     13 0
 S   3 1.00       0.000000000000
      0.1873113696D+02  0.3349460434D-01
      0.2825394365D+01  0.2347269535D+00
      0.6401216923D+00  0.8137573261D+00
 S   1 1.00       0.000000000000
      0.1612777588D+00  0.1000000000D+01
 P   1 1.00       0.000000000000
      0.1100000000D+01  0.1000000000D+01
 ****
     14 0
 S   3 1.00       0.000000000000
      0.1873113696D+02  0.3349460434D-01
      0.2825394365D+01  0.2347269535D+00
      0.6401216923D+00  0.8137573261D+00
 S   1 1.00       0.000000000000
      0.1612777588D+00  0.1000000000D+01
 P   1 1.00       0.000000000000
      0.1100000000D+01  0.1000000000D+01
 ****
     15 0
 S   3 1.00       0.000000000000
      0.1873113696D+02  0.3349460434D-01
      0.2825394365D+01  0.2347269535D+00
      0.6401216923D+00  0.8137573261D+00
 S   1 1.00       0.000000000000
      0.1612777588D+00  0.1000000000D+01
 P   1 1.00       0.000000000000
      0.1100000000D+01  0.1000000000D+01
 ****
     16 0
 S   3 1.00       0.000000000000
      0.1873113696D+02  0.3349460434D-01
      0.2825394365D+01  0.2347269535D+00
      0.6401216923D+00  0.8137573261D+00
 S   1 1.00       0.000000000000
      0.1612777588D+00  0.1000000000D+01
 P   1 1.00       0.000000000000
      0.1100000000D+01  0.1000000000D+01
 ****
     17 0
 S   3 1.00       0.000000000000
      0.1873113696D+02  0.3349460434D-01
      0.2825394365D+01  0.2347269535D+00
      0.6401216923D+00  0.8137573261D+00
 S   1 1.00       0.000000000000
      0.1612777588D+00  0.1000000000D+01
 P   1 1.00       0.000000000000
      0.1100000000D+01  0.1000000000D+01
 ****

 There are    42 symmetry adapted cartesian basis functions of A   symmetry.
 There are    39 symmetry adapted cartesian basis functions of B1  symmetry.
 There are    39 symmetry adapted cartesian basis functions of B2  symmetry.
 There are    39 symmetry adapted cartesian basis functions of B3  symmetry.
 There are    42 symmetry adapted basis functions of A   symmetry.
 There are    39 symmetry adapted basis functions of B1  symmetry.
 There are    39 symmetry adapted basis functions of B2  symmetry.
 There are    39 symmetry adapted basis functions of B3  symmetry.
   159 basis functions,   268 primitive gaussians,   159 cartesian basis functions
    25 alpha electrons       25 beta electrons
       nuclear repulsion energy       244.7916605192 Hartrees.
 IExCor=  402 DFT=T Ex+Corr=B3LYP ExCW=0 ScaHFX=  0.200000
 ScaDFX=  0.800000  0.720000  1.000000  0.810000 ScalE2=  1.000000  1.000000
 IRadAn=      0 IRanWt=     -1 IRanGd=            0 ICorTp=0 IEmpDi=  4
 NAtoms=   17 NActive=   17 NUniq=    3 SFac= 4.00D+00 NAtFMM=   60 NAOKFM=F Big=F
 Integral buffers will be    131072 words long.
 Raffenetti 2 integral format.
 Two-electron integral symmetry is turned on.
 Leave Link  301 at Thu Sep 12 00:17:02 2024, MaxMem=   268435456 cpu:         0.1
 (Enter /g100_work/pMI24_ChiCa/g09d1/g09d01/d01/build-node-6-2-59348/src/main/l302.exe)
 NPDir=0 NMtPBC=     1 NCelOv=     1 NCel=       1 NClECP=     1 NCelD=      1
         NCelK=      1 NCelE2=     1 NClLst=     1 CellRange=     0.0.
 One-electron integrals computed using PRISM.
 One-electron integral symmetry used in STVInt
 NBasis=   159 RedAO= T EigKep=  3.65D-04  NBF=    42    39    39    39
 NBsUse=   159 1.00D-06 EigRej= -1.00D+00 NBFU=    42    39    39    39
 Precomputing XC quadrature grid using
 IXCGrd= 4 IRadAn=           0 IRanWt=          -1 IRanGd=           0 AccXCQ= 0.00D+00.
 Generated NRdTot=       0 NPtTot=           0 NUsed=           0 NTot=          32
 NSgBfM=   159   159   159   159   159 MxSgAt=    17 MxSgA2=    17.
 Leave Link  302 at Thu Sep 12 00:17:02 2024, MaxMem=   268435456 cpu:         2.1
 (Enter /g100_work/pMI24_ChiCa/g09d1/g09d01/d01/build-node-6-2-59348/src/main/l303.exe)
 DipDrv:  MaxL=1.
 Leave Link  303 at Thu Sep 12 00:17:02 2024, MaxMem=   268435456 cpu:         0.2
 (Enter /g100_work/pMI24_ChiCa/g09d1/g09d01/d01/build-node-6-2-59348/src/main/l401.exe)
 ExpMin= 3.31D-02 ExpMax= 1.61D+04 ExpMxC= 2.43D+03 IAcc=3 IRadAn=         5 AccDes= 0.00D+00
 Harris functional with IExCor=  402 and IRadAn=       5 diagonalized for initial guess.
 HarFok:  IExCor=  402 AccDes= 0.00D+00 IRadAn=         5 IDoV= 1 UseB2=F ITyADJ=14
 ICtDFT=  3500011 ScaDFX=  1.000000  1.000000  1.000000  1.000000
 FoFCou: FMM=F IPFlag=           0 FMFlag=      100000 FMFlg1=           0
         NFxFlg=           0 DoJE=T BraDBF=F KetDBF=T FulRan=T
         wScrn=  0.000000 ICntrl=     500 IOpCl=  0 I1Cent=   200000004 NGrid=           0
         NMat0=    1 NMatS0=      1 NMatT0=    0 NMatD0=    1 NMtDS0=    0 NMtDT0=    0
 Petite list used in FoFCou.
 Harris En= -449.331417115737    
 JPrj=0 DoOrth=F DoCkMO=F.
 Initial guess orbital symmetries:
       Occupied  (A1) (A1) (T2) (T2) (T2) (A1) (T2) (T2) (T2) (A1)
                 (T2) (T2) (T2) (A1) (T2) (T2) (T2) (E) (E) (T1)
                 (T1) (T1) (T2) (T2) (T2)
       Virtual   (A1) (T2) (T2) (T2) (T2) (T2) (T2) (A1) (E) (E)
                 (T2) (T2) (T2) (E) (E) (T1) (T1) (T1) (A1) (T2)
                 (T2) (T2) (A1) (T2) (T2) (T2) (T2) (T2) (T2) (T1)
                 (T1) (T1) (T2) (T2) (T2) (A1) (T2) (T2) (T2) (E)
                 (E) (A1) (T2) (T2) (T2) (T1) (T1) (T1) (A1) (E)
                 (E) (T2) (T2) (T2) (T2) (T2) (T2) (T1) (T1) (T1)
                 (E) (E) (T2) (T2) (T2) (A1) (T2) (T2) (T2) (T2)
                 (T2) (T2) (T1) (T1) (T1) (A1) (E) (E) (T2) (T2)
                 (T2) (A1) (A2) (T1) (T1) (T1) (E) (E) (T2) (T2)
                 (T2) (T1) (T1) (T1) (T2) (T2) (T2) (T1) (T1) (T1)
                 (T2) (T2) (T2) (E) (E) (A1) (T2) (T2) (T2) (E)
                 (E) (T1) (T1) (T1) (T2) (T2) (T2) (A1) (T2) (T2)
                 (T2) (A1) (E) (E) (T2) (T2) (T2) (T1) (T1) (T1)
                 (T2) (T2) (T2) (A1)
 The electronic state of the initial guess is 1-A1.
 Leave Link  401 at Thu Sep 12 00:17:03 2024, MaxMem=   268435456 cpu:         2.8
 (Enter /g100_work/pMI24_ChiCa/g09d1/g09d01/d01/build-node-6-2-59348/src/main/l502.exe)
 Closed shell SCF:
 Using DIIS extrapolation, IDIIS=  1040.
 Integral symmetry usage will be decided dynamically.
 Keep R1 ints in memory in symmetry-blocked form, NReq=101268599.
 IVT=      101333 IEndB=      101333 NGot=   268435456 MDV=   248072577
 LenX=   248072577 LenY=   248046855
 Requested convergence on RMS density matrix=1.00D-08 within 128 cycles.
 Requested convergence on MAX density matrix=1.00D-06.
 Requested convergence on             energy=1.00D-06.
 No special actions if energy rises.
 FoFCou: FMM=F IPFlag=           0 FMFlag=           0 FMFlg1=           0
         NFxFlg=           0 DoJE=F BraDBF=F KetDBF=F FulRan=T
         wScrn=  0.000000 ICntrl=     600 IOpCl=  0 I1Cent=           0 NGrid=           0
         NMat0=    1 NMatS0=  12720 NMatT0=    0 NMatD0=    1 NMtDS0=    0 NMtDT0=    0
 Petite list used in FoFCou.

 Cycle   1  Pass 1  IDiag  1:
 E= -448.832523970302    
 DIIS: error= 3.94D-02 at cycle   1 NSaved=   1.
 NSaved= 1 IEnMin= 1 EnMin= -448.832523970302     IErMin= 1 ErrMin= 3.94D-02
 ErrMax= 3.94D-02  0.00D+00 EMaxC= 1.00D-01 BMatC= 3.65D-01 BMatP= 3.65D-01
 IDIUse=3 WtCom= 6.06D-01 WtEn= 3.94D-01
 Coeff-Com:  0.100D+01
 Coeff-En:   0.100D+01
 Coeff:      0.100D+01
 Gap=     0.176 Goal=   None    Shift=    0.000
 GapD=    0.176 DampG=1.000 DampE=0.500 DampFc=0.5000 IDamp=-1.
 Damping current iteration by 5.00D-01
 RMSDP=6.97D-03 MaxDP=1.56D-01              OVMax= 2.39D-01

 Cycle   2  Pass 1  IDiag  1:
 E= -449.004648570674     Delta-E=       -0.172124600372 Rises=F Damp=T
 DIIS: error= 1.05D-02 at cycle   2 NSaved=   2.
 NSaved= 2 IEnMin= 2 EnMin= -449.004648570674     IErMin= 2 ErrMin= 1.05D-02
 ErrMax= 1.05D-02  0.00D+00 EMaxC= 1.00D-01 BMatC= 7.92D-03 BMatP= 3.65D-01
 IDIUse=3 WtCom= 8.95D-01 WtEn= 1.05D-01
 Coeff-Com:  0.675D-01 0.932D+00
 Coeff-En:   0.129D+00 0.871D+00
 Coeff:      0.740D-01 0.926D+00
 Gap=     0.278 Goal=   None    Shift=    0.000
 RMSDP=8.97D-04 MaxDP=4.67D-02 DE=-1.72D-01 OVMax= 1.33D-01

 Cycle   3  Pass 1  IDiag  1:
 E= -449.211735766419     Delta-E=       -0.207087195745 Rises=F Damp=F
 DIIS: error= 1.84D-03 at cycle   3 NSaved=   3.
 NSaved= 3 IEnMin= 3 EnMin= -449.211735766419     IErMin= 3 ErrMin= 1.84D-03
 ErrMax= 1.84D-03  0.00D+00 EMaxC= 1.00D-01 BMatC= 3.04D-04 BMatP= 7.92D-03
 IDIUse=3 WtCom= 9.82D-01 WtEn= 1.84D-02
 Coeff-Com:  0.349D-02 0.744D-01 0.922D+00
 Coeff-En:   0.000D+00 0.000D+00 0.100D+01
 Coeff:      0.342D-02 0.730D-01 0.924D+00
 Gap=     0.276 Goal=   None    Shift=    0.000
 RMSDP=3.76D-04 MaxDP=1.87D-02 DE=-2.07D-01 OVMax= 8.99D-03

 Cycle   4  Pass 1  IDiag  1:
 E= -449.211879093240     Delta-E=       -0.000143326822 Rises=F Damp=F
 DIIS: error= 1.44D-03 at cycle   4 NSaved=   4.
 NSaved= 4 IEnMin= 4 EnMin= -449.211879093240     IErMin= 4 ErrMin= 1.44D-03
 ErrMax= 1.44D-03  0.00D+00 EMaxC= 1.00D-01 BMatC= 2.07D-04 BMatP= 3.04D-04
 IDIUse=3 WtCom= 9.86D-01 WtEn= 1.44D-02
 Coeff-Com: -0.764D-03-0.798D-02 0.452D+00 0.557D+00
 Coeff-En:   0.000D+00 0.000D+00 0.387D+00 0.613D+00
 Coeff:     -0.753D-03-0.787D-02 0.451D+00 0.558D+00
 Gap=     0.280 Goal=   None    Shift=    0.000
 RMSDP=1.54D-04 MaxDP=9.13D-03 DE=-1.43D-04 OVMax= 3.97D-03

 Cycle   5  Pass 1  IDiag  1:
 E= -449.212138734641     Delta-E=       -0.000259641401 Rises=F Damp=F
 DIIS: error= 2.37D-05 at cycle   5 NSaved=   5.
 NSaved= 5 IEnMin= 5 EnMin= -449.212138734641     IErMin= 5 ErrMin= 2.37D-05
 ErrMax= 2.37D-05  0.00D+00 EMaxC= 1.00D-01 BMatC= 1.01D-07 BMatP= 2.07D-04
 IDIUse=1 WtCom= 1.00D+00 WtEn= 0.00D+00
 Coeff-Com:  0.427D-03-0.398D-03 0.905D-02 0.545D-02 0.985D+00
 Coeff:      0.427D-03-0.398D-03 0.905D-02 0.545D-02 0.985D+00
 Gap=     0.280 Goal=   None    Shift=    0.000
 RMSDP=2.65D-06 MaxDP=4.03D-05 DE=-2.60D-04 OVMax= 9.05D-05

 Cycle   6  Pass 1  IDiag  1:
 E= -449.212138859100     Delta-E=       -0.000000124459 Rises=F Damp=F
 DIIS: error= 1.45D-06 at cycle   6 NSaved=   6.
 NSaved= 6 IEnMin= 6 EnMin= -449.212138859100     IErMin= 6 ErrMin= 1.45D-06
 ErrMax= 1.45D-06  0.00D+00 EMaxC= 1.00D-01 BMatC= 3.42D-10 BMatP= 1.01D-07
 IDIUse=1 WtCom= 1.00D+00 WtEn= 0.00D+00
 Coeff-Com: -0.571D-05-0.194D-05-0.190D-02-0.193D-02 0.289D-01 0.975D+00
 Coeff:     -0.571D-05-0.194D-05-0.190D-02-0.193D-02 0.289D-01 0.975D+00
 Gap=     0.280 Goal=   None    Shift=    0.000
 RMSDP=2.44D-07 MaxDP=1.13D-05 DE=-1.24D-07 OVMax= 5.91D-06

 Cycle   7  Pass 1  IDiag  1:
 E= -449.212138859741     Delta-E=       -0.000000000641 Rises=F Damp=F
 DIIS: error= 3.28D-07 at cycle   7 NSaved=   7.
 NSaved= 7 IEnMin= 7 EnMin= -449.212138859741     IErMin= 7 ErrMin= 3.28D-07
 ErrMax= 3.28D-07  0.00D+00 EMaxC= 1.00D-01 BMatC= 6.65D-12 BMatP= 3.42D-10
 IDIUse=1 WtCom= 1.00D+00 WtEn= 0.00D+00
 Coeff-Com: -0.513D-05 0.257D-05-0.387D-03-0.439D-03-0.221D-02 0.155D+00
 Coeff-Com:  0.848D+00
 Coeff:     -0.513D-05 0.257D-05-0.387D-03-0.439D-03-0.221D-02 0.155D+00
 Coeff:      0.848D+00
 Gap=     0.280 Goal=   None    Shift=    0.000
 RMSDP=3.75D-08 MaxDP=2.75D-06 DE=-6.41D-10 OVMax= 6.66D-07

 Cycle   8  Pass 1  IDiag  1:
 E= -449.212138859707     Delta-E=        0.000000000034 Rises=F Damp=F
 DIIS: error= 2.43D-08 at cycle   8 NSaved=   8.
 NSaved= 8 IEnMin= 7 EnMin= -449.212138859741     IErMin= 8 ErrMin= 2.43D-08
 ErrMax= 2.43D-08  0.00D+00 EMaxC= 1.00D-01 BMatC= 7.76D-14 BMatP= 6.65D-12
 IDIUse=1 WtCom= 1.00D+00 WtEn= 0.00D+00
 Coeff-Com: -0.593D-06 0.881D-06 0.615D-05-0.351D-05-0.762D-03-0.388D-02
 Coeff-Com:  0.486D-01 0.956D+00
 Coeff:     -0.593D-06 0.881D-06 0.615D-05-0.351D-05-0.762D-03-0.388D-02
 Coeff:      0.486D-01 0.956D+00
 Gap=     0.280 Goal=   None    Shift=    0.000
 RMSDP=5.46D-09 MaxDP=8.11D-08 DE= 3.38D-11 OVMax= 7.97D-08

 SCF Done:  E(RB3LYP) =  -449.212138860     A.U. after    8 cycles
            NFock=  8  Conv=0.55D-08     -V/T= 2.0056
 KE= 4.466995049931D+02 PE=-1.547001835065D+03 EE= 4.062985306926D+02
 Leave Link  502 at Thu Sep 12 00:17:04 2024, MaxMem=   268435456 cpu:        17.5
 (Enter /g100_work/pMI24_ChiCa/g09d1/g09d01/d01/build-node-6-2-59348/src/main/l601.exe)
 Copying SCF densities to generalized density rwf, IOpCl= 0 IROHF=0.

 **********************************************************************

            Population analysis using the SCF density.

 **********************************************************************

 Orbital symmetries:
       Occupied  (A1) (T2) (T2) (T2) (A1) (A1) (T2) (T2) (T2) (A1)
                 (T2) (T2) (T2) (A1) (T2) (T2) (T2) (E) (E) (T1)
                 (T1) (T1) (T2) (T2) (T2)
       Virtual   (A1) (T2) (T2) (T2) (T2) (T2) (T2) (A1) (E) (E)
                 (T1) (T1) (T1) (T2) (T2) (T2) (T2) (T2) (T2) (A1)
                 (E) (E) (T2) (T2) (T2) (A1) (T2) (T2) (T2) (T1)
                 (T1) (T1) (T2) (T2) (T2) (A1) (T2) (T2) (T2) (A1)
                 (E) (E) (T2) (T2) (T2) (T1) (T1) (T1) (A1) (E)
                 (E) (T2) (T2) (T2) (T2) (T2) (T2) (T1) (T1) (T1)
                 (T2) (T2) (T2) (E) (E) (A1) (T2) (T2) (T2) (T2)
                 (T2) (T2) (T1) (T1) (T1) (A1) (E) (E) (T2) (T2)
                 (T2) (A1) (A2) (T1) (T1) (T1) (E) (E) (T2) (T2)
                 (T2) (T1) (T1) (T1) (T2) (T2) (T2) (T1) (T1) (T1)
                 (T2) (T2) (T2) (E) (E) (A1) (T2) (T2) (T2) (E)
                 (E) (T1) (T1) (T1) (T2) (T2) (T2) (A1) (T2) (T2)
                 (T2) (A1) (E) (E) (T2) (T2) (T2) (T1) (T1) (T1)
                 (T2) (T2) (T2) (A1)
 The electronic state is 1-A1.
 Alpha  occ. eigenvalues --  -66.11880 -10.15523 -10.15523 -10.15523 -10.15523
 Alpha  occ. eigenvalues --   -5.26279  -3.62152  -3.62152  -3.62152  -0.72247
 Alpha  occ. eigenvalues --   -0.68229  -0.68229  -0.68229  -0.45335  -0.41848
 Alpha  occ. eigenvalues --   -0.41848  -0.41848  -0.40459  -0.40459  -0.38781
 Alpha  occ. eigenvalues --   -0.38781  -0.38781  -0.29083  -0.29083  -0.29083
 Alpha virt. eigenvalues --   -0.01093   0.01995   0.01995   0.01995   0.05911
 Alpha virt. eigenvalues --    0.05911   0.05911   0.07229   0.07294   0.07294
 Alpha virt. eigenvalues --    0.10373   0.10373   0.10373   0.11242   0.11242
 Alpha virt. eigenvalues --    0.11242   0.12933   0.12933   0.12933   0.14530
 Alpha virt. eigenvalues --    0.15962   0.15962   0.16693   0.16693   0.16693
 Alpha virt. eigenvalues --    0.22172   0.22637   0.22637   0.22637   0.26286
 Alpha virt. eigenvalues --    0.26286   0.26286   0.34282   0.34282   0.34282
 Alpha virt. eigenvalues --    0.40235   0.44251   0.44251   0.44251   0.49218
 Alpha virt. eigenvalues --    0.52595   0.52595   0.66641   0.66641   0.66641
 Alpha virt. eigenvalues --    0.77182   0.77182   0.77182   0.77280   0.78346
 Alpha virt. eigenvalues --    0.78346   0.81213   0.81213   0.81213   0.90368
 Alpha virt. eigenvalues --    0.90368   0.90368   0.98137   0.98137   0.98137
 Alpha virt. eigenvalues --    1.00216   1.00216   1.00216   1.00227   1.00227
 Alpha virt. eigenvalues --    1.15536   1.17094   1.17094   1.17094   1.29844
 Alpha virt. eigenvalues --    1.29844   1.29844   1.43327   1.43327   1.43327
 Alpha virt. eigenvalues --    1.45142   1.50832   1.50832   1.64572   1.64572
 Alpha virt. eigenvalues --    1.64572   1.97717   2.05069   2.05100   2.05100
 Alpha virt. eigenvalues --    2.05100   2.11608   2.11608   2.12634   2.12634
 Alpha virt. eigenvalues --    2.12634   2.18189   2.18189   2.18189   2.21272
 Alpha virt. eigenvalues --    2.21272   2.21272   2.36111   2.36111   2.36111
 Alpha virt. eigenvalues --    2.41273   2.41273   2.41273   2.42556   2.42556
 Alpha virt. eigenvalues --    2.62936   2.69178   2.69178   2.69178   2.85556
 Alpha virt. eigenvalues --    2.85556   2.90000   2.90000   2.90000   2.91031
 Alpha virt. eigenvalues --    2.91031   2.91031   3.13035   3.31418   3.31418
 Alpha virt. eigenvalues --    3.31418   3.32718   3.47519   3.47519   3.49532
 Alpha virt. eigenvalues --    3.49532   3.49532   3.50596   3.50596   3.50596
 Alpha virt. eigenvalues --    4.48251   4.48251   4.48251   4.50074
     Molecular Orbital Coefficients:
                           1         2         3         4         5
                        (A1)--O   (T2)--O   (T2)--O   (T2)--O   (A1)--O
     Eigenvalues --   -66.11880 -10.15523 -10.15523 -10.15523 -10.15523
   1 1   Si 1S          0.99654   0.00000   0.00000   0.00000  -0.00000
   2        2S          0.01284   0.00000   0.00000   0.00000  -0.00025
   3        2PX         0.00000   0.00000   0.00000   0.00004   0.00000
   4        2PY         0.00000   0.00004   0.00000   0.00000   0.00000
   5        2PZ         0.00000   0.00000  -0.00004   0.00000   0.00000
   6        3S         -0.03032   0.00000   0.00000   0.00000  -0.00102
   7        3PX         0.00000   0.00000   0.00000  -0.00095   0.00000
   8        3PY         0.00000  -0.00095   0.00000   0.00000   0.00000
   9        3PZ         0.00000   0.00000   0.00095   0.00000   0.00000
  10        4S          0.00859   0.00000   0.00000   0.00000   0.01568
  11        4PX         0.00000   0.00000   0.00000  -0.00302   0.00000
  12        4PY         0.00000  -0.00302   0.00000   0.00000   0.00000
  13        4PZ         0.00000   0.00000   0.00302   0.00000   0.00000
  14        5S          0.00476   0.00000   0.00000   0.00000  -0.00510
  15        5PX         0.00000   0.00000   0.00000   0.00439   0.00000
  16        5PY         0.00000   0.00439   0.00000   0.00000   0.00000
  17        5PZ         0.00000   0.00000  -0.00439   0.00000   0.00000
  18        6XX         0.00999   0.00000   0.00000   0.00000   0.00013
  19        6YY         0.00999   0.00000   0.00000   0.00000   0.00013
  20        6ZZ         0.00999   0.00000   0.00000   0.00000   0.00013
  21        6XY         0.00000   0.00000   0.00029   0.00000   0.00000
  22        6XZ         0.00000  -0.00029   0.00000   0.00000   0.00000
  23        6YZ         0.00000   0.00000   0.00000  -0.00029   0.00000
  24 2   C  1S         -0.00001   0.49645   0.49645   0.49645   0.49650
  25        2S          0.00006   0.02518   0.02518   0.02518   0.02545
  26        2PX         0.00002  -0.00007  -0.00007  -0.00005  -0.00006
  27        2PY         0.00002  -0.00005  -0.00007  -0.00007  -0.00006
  28        2PZ        -0.00002   0.00007   0.00005   0.00007   0.00006
  29        3S          0.00082  -0.00843  -0.00843  -0.00843  -0.00991
  30        3PX         0.00011  -0.00006  -0.00006  -0.00018  -0.00082
  31        3PY         0.00011  -0.00018  -0.00006  -0.00006  -0.00082
  32        3PZ        -0.00011   0.00006   0.00018   0.00006   0.00082
  33        4S         -0.00213  -0.00042  -0.00042  -0.00042   0.00038
  34        4PX        -0.00044  -0.00000  -0.00000  -0.00132  -0.00023
  35        4PY        -0.00044  -0.00132  -0.00000  -0.00000  -0.00023
  36        4PZ         0.00044   0.00000   0.00132   0.00000   0.00023
  37        5XX        -0.00008  -0.00454  -0.00454  -0.00448  -0.00448
  38        5YY        -0.00008  -0.00448  -0.00454  -0.00454  -0.00448
  39        5ZZ        -0.00008  -0.00454  -0.00448  -0.00454  -0.00448
  40        5XY        -0.00008  -0.00007  -0.00011  -0.00007  -0.00012
  41        5XZ         0.00008   0.00011   0.00007   0.00007   0.00012
  42        5YZ         0.00008   0.00007   0.00007   0.00011   0.00012
  43 3   C  1S         -0.00001  -0.49645   0.49645  -0.49645   0.49650
  44        2S          0.00006  -0.02518   0.02518  -0.02518   0.02545
  45        2PX        -0.00002  -0.00007   0.00007  -0.00005   0.00006
  46        2PY        -0.00002  -0.00005   0.00007  -0.00007   0.00006
  47        2PZ        -0.00002  -0.00007   0.00005  -0.00007   0.00006
  48        3S          0.00082   0.00843  -0.00843   0.00843  -0.00991
  49        3PX        -0.00011  -0.00006   0.00006  -0.00018   0.00082
  50        3PY        -0.00011  -0.00018   0.00006  -0.00006   0.00082
  51        3PZ        -0.00011  -0.00006   0.00018  -0.00006   0.00082
  52        4S         -0.00213   0.00042  -0.00042   0.00042   0.00038
  53        4PX         0.00044  -0.00000   0.00000  -0.00132   0.00023
  54        4PY         0.00044  -0.00132   0.00000  -0.00000   0.00023
  55        4PZ         0.00044  -0.00000   0.00132  -0.00000   0.00023
  56        5XX        -0.00008   0.00454  -0.00454   0.00448  -0.00448
  57        5YY        -0.00008   0.00448  -0.00454   0.00454  -0.00448
  58        5ZZ        -0.00008   0.00454  -0.00448   0.00454  -0.00448
  59        5XY        -0.00008   0.00007  -0.00011   0.00007  -0.00012
  60        5XZ        -0.00008   0.00011  -0.00007   0.00007  -0.00012
  61        5YZ        -0.00008   0.00007  -0.00007   0.00011  -0.00012
  62 4   C  1S         -0.00001   0.49645  -0.49645  -0.49645   0.49650
  63        2S          0.00006   0.02518  -0.02518  -0.02518   0.02545
  64        2PX        -0.00002   0.00007  -0.00007  -0.00005   0.00006
  65        2PY         0.00002  -0.00005   0.00007   0.00007  -0.00006
  66        2PZ         0.00002  -0.00007   0.00005   0.00007  -0.00006
  67        3S          0.00082  -0.00843   0.00843   0.00843  -0.00991
  68        3PX        -0.00011   0.00006  -0.00006  -0.00018   0.00082
  69        3PY         0.00011  -0.00018   0.00006   0.00006  -0.00082
  70        3PZ         0.00011  -0.00006   0.00018   0.00006  -0.00082
  71        4S         -0.00213  -0.00042   0.00042   0.00042   0.00038
  72        4PX         0.00044   0.00000  -0.00000  -0.00132   0.00023
  73        4PY        -0.00044  -0.00132   0.00000   0.00000  -0.00023
  74        4PZ        -0.00044  -0.00000   0.00132   0.00000  -0.00023
  75        5XX        -0.00008  -0.00454   0.00454   0.00448  -0.00448
  76        5YY        -0.00008  -0.00448   0.00454   0.00454  -0.00448
  77        5ZZ        -0.00008  -0.00454   0.00448   0.00454  -0.00448
  78        5XY         0.00008   0.00007  -0.00011  -0.00007   0.00012
  79        5XZ         0.00008   0.00011  -0.00007  -0.00007   0.00012
  80        5YZ        -0.00008  -0.00007   0.00007   0.00011  -0.00012
  81 5   C  1S         -0.00001  -0.49645  -0.49645   0.49645   0.49650
  82        2S          0.00006  -0.02518  -0.02518   0.02518   0.02545
  83        2PX         0.00002   0.00007   0.00007  -0.00005  -0.00006
  84        2PY        -0.00002  -0.00005  -0.00007   0.00007   0.00006
  85        2PZ         0.00002   0.00007   0.00005  -0.00007  -0.00006
  86        3S          0.00082   0.00843   0.00843  -0.00843  -0.00991
  87        3PX         0.00011   0.00006   0.00006  -0.00018  -0.00082
  88        3PY        -0.00011  -0.00018  -0.00006   0.00006   0.00082
  89        3PZ         0.00011   0.00006   0.00018  -0.00006  -0.00082
  90        4S         -0.00213   0.00042   0.00042  -0.00042   0.00038
  91        4PX        -0.00044   0.00000   0.00000  -0.00132  -0.00023
  92        4PY         0.00044  -0.00132  -0.00000   0.00000   0.00023
  93        4PZ        -0.00044   0.00000   0.00132  -0.00000  -0.00023
  94        5XX        -0.00008   0.00454   0.00454  -0.00448  -0.00448
  95        5YY        -0.00008   0.00448   0.00454  -0.00454  -0.00448
  96        5ZZ        -0.00008   0.00454   0.00448  -0.00454  -0.00448
  97        5XY         0.00008  -0.00007  -0.00011   0.00007   0.00012
  98        5XZ        -0.00008   0.00011   0.00007  -0.00007  -0.00012
  99        5YZ         0.00008  -0.00007  -0.00007   0.00011   0.00012
 100 6   H  1S         -0.00009   0.00012  -0.00020   0.00012  -0.00008
 101        2S         -0.00016  -0.00134   0.00220  -0.00134   0.00110
 102        3PX         0.00000  -0.00008   0.00001  -0.00006   0.00008
 103        3PY         0.00000  -0.00006   0.00001  -0.00008   0.00008
 104        3PZ         0.00000   0.00007  -0.00008   0.00007  -0.00009
 105 7   H  1S         -0.00009   0.00012  -0.00012   0.00020  -0.00008
 106        2S         -0.00016  -0.00134   0.00134  -0.00220   0.00110
 107        3PX         0.00000   0.00007  -0.00007   0.00008  -0.00009
 108        3PY         0.00000  -0.00006   0.00008  -0.00001   0.00008
 109        3PZ         0.00000  -0.00008   0.00006  -0.00001   0.00008
 110 8   H  1S         -0.00009   0.00020  -0.00012   0.00012  -0.00008
 111        2S         -0.00016  -0.00220   0.00134  -0.00134   0.00110
 112        3PX         0.00000  -0.00001   0.00008  -0.00006   0.00008
 113        3PY         0.00000   0.00008  -0.00007   0.00007  -0.00009
 114        3PZ         0.00000  -0.00001   0.00006  -0.00008   0.00008
 115 9   H  1S         -0.00009  -0.00012  -0.00020  -0.00012  -0.00008
 116        2S         -0.00016   0.00134   0.00220   0.00134   0.00110
 117        3PX        -0.00000  -0.00008  -0.00001  -0.00006  -0.00008
 118        3PY        -0.00000  -0.00006  -0.00001  -0.00008  -0.00008
 119        3PZ         0.00000  -0.00007  -0.00008  -0.00007  -0.00009
 120 10  H  1S         -0.00009  -0.00012  -0.00012  -0.00020  -0.00008
 121        2S         -0.00016   0.00134   0.00134   0.00220   0.00110
 122        3PX        -0.00000   0.00007   0.00007   0.00008   0.00009
 123        3PY        -0.00000  -0.00006  -0.00008  -0.00001  -0.00008
 124        3PZ         0.00000   0.00008   0.00006   0.00001   0.00008
 125 11  H  1S         -0.00009  -0.00020  -0.00012  -0.00012  -0.00008
 126        2S         -0.00016   0.00220   0.00134   0.00134   0.00110
 127        3PX        -0.00000  -0.00001  -0.00008  -0.00006  -0.00008
 128        3PY        -0.00000   0.00008   0.00007   0.00007   0.00009
 129        3PZ         0.00000   0.00001   0.00006   0.00008   0.00008
 130 12  H  1S         -0.00009   0.00020   0.00012  -0.00012  -0.00008
 131        2S         -0.00016  -0.00220  -0.00134   0.00134   0.00110
 132        3PX        -0.00000   0.00001   0.00008  -0.00006  -0.00008
 133        3PY         0.00000   0.00008   0.00007  -0.00007  -0.00009
 134        3PZ        -0.00000   0.00001   0.00006  -0.00008  -0.00008
 135 13  H  1S         -0.00009   0.00012   0.00020  -0.00012  -0.00008
 136        2S         -0.00016  -0.00134  -0.00220   0.00134   0.00110
 137        3PX        -0.00000   0.00008   0.00001  -0.00006  -0.00008
 138        3PY         0.00000  -0.00006  -0.00001   0.00008   0.00008
 139        3PZ        -0.00000  -0.00007  -0.00008   0.00007   0.00009
 140 14  H  1S         -0.00009   0.00012   0.00012  -0.00020  -0.00008
 141        2S         -0.00016  -0.00134  -0.00134   0.00220   0.00110
 142        3PX        -0.00000  -0.00007  -0.00007   0.00008   0.00009
 143        3PY         0.00000  -0.00006  -0.00008   0.00001   0.00008
 144        3PZ        -0.00000   0.00008   0.00006  -0.00001  -0.00008
 145 15  H  1S         -0.00009  -0.00020   0.00012   0.00012  -0.00008
 146        2S         -0.00016   0.00220  -0.00134  -0.00134   0.00110
 147        3PX         0.00000   0.00001  -0.00008  -0.00006   0.00008
 148        3PY        -0.00000   0.00008  -0.00007  -0.00007   0.00009
 149        3PZ        -0.00000  -0.00001   0.00006   0.00008  -0.00008
 150 16  H  1S         -0.00009  -0.00012   0.00020   0.00012  -0.00008
 151        2S         -0.00016   0.00134  -0.00220  -0.00134   0.00110
 152        3PX         0.00000   0.00008  -0.00001  -0.00006   0.00008
 153        3PY        -0.00000  -0.00006   0.00001   0.00008  -0.00008
 154        3PZ        -0.00000   0.00007  -0.00008  -0.00007   0.00009
 155 17  H  1S         -0.00009  -0.00012   0.00012   0.00020  -0.00008
 156        2S         -0.00016   0.00134  -0.00134  -0.00220   0.00110
 157        3PX         0.00000  -0.00007   0.00007   0.00008  -0.00009
 158        3PY        -0.00000  -0.00006   0.00008   0.00001  -0.00008
 159        3PZ        -0.00000  -0.00008   0.00006   0.00001  -0.00008
                           6         7         8         9        10
                        (A1)--O   (T2)--O   (T2)--O   (T2)--O   (A1)--O
     Eigenvalues --    -5.26279  -3.62152  -3.62152  -3.62152  -0.72247
   1 1   Si 1S         -0.26785   0.00000   0.00000   0.00000   0.02777
   2        2S          1.02409   0.00000   0.00000   0.00000  -0.12916
   3        2PX         0.00000   0.00000   0.99078   0.00000   0.00000
   4        2PY         0.00000   0.99078   0.00000   0.00000   0.00000
   5        2PZ         0.00000   0.00000   0.00000   0.99078   0.00000
   6        3S          0.08666   0.00000   0.00000   0.00000   0.24410
   7        3PX         0.00000   0.00000   0.03693   0.00000   0.00000
   8        3PY         0.00000   0.03693   0.00000   0.00000   0.00000
   9        3PZ         0.00000   0.00000   0.00000   0.03693   0.00000
  10        4S         -0.03750   0.00000   0.00000   0.00000  -0.06035
  11        4PX         0.00000   0.00000  -0.01831   0.00000   0.00000
  12        4PY         0.00000  -0.01831   0.00000   0.00000   0.00000
  13        4PZ         0.00000   0.00000   0.00000  -0.01831   0.00000
  14        5S         -0.02424   0.00000   0.00000   0.00000  -0.05189
  15        5PX         0.00000   0.00000  -0.00419   0.00000   0.00000
  16        5PY         0.00000  -0.00419   0.00000   0.00000   0.00000
  17        5PZ         0.00000   0.00000   0.00000  -0.00419   0.00000
  18        6XX        -0.01901   0.00000   0.00000   0.00000  -0.00141
  19        6YY        -0.01901   0.00000   0.00000   0.00000  -0.00141
  20        6ZZ        -0.01901   0.00000   0.00000   0.00000  -0.00141
  21        6XY         0.00000   0.00000   0.00000   0.00145   0.00000
  22        6XZ         0.00000   0.00145   0.00000   0.00000   0.00000
  23        6YZ         0.00000   0.00000   0.00145   0.00000   0.00000
  24 2   C  1S         -0.00002   0.00013   0.00013  -0.00013  -0.09360
  25        2S          0.00029  -0.00071  -0.00071   0.00071   0.17237
  26        2PX        -0.00013   0.00006   0.00008  -0.00006   0.00390
  27        2PY        -0.00013   0.00008   0.00006  -0.00006   0.00390
  28        2PZ         0.00013  -0.00006  -0.00006   0.00008  -0.00390
  29        3S         -0.00282   0.00362   0.00362  -0.00362   0.17261
  30        3PX        -0.00046   0.00161  -0.00037  -0.00161   0.00850
  31        3PY        -0.00046  -0.00037   0.00161  -0.00161   0.00850
  32        3PZ         0.00046  -0.00161  -0.00161  -0.00037  -0.00850
  33        4S          0.01057  -0.01298  -0.01298   0.01298   0.02858
  34        4PX         0.00227  -0.00342  -0.00304   0.00342   0.00430
  35        4PY         0.00227  -0.00304  -0.00342   0.00342   0.00430
  36        4PZ        -0.00227   0.00342   0.00342  -0.00304  -0.00430
  37        5XX         0.00008   0.00016  -0.00024  -0.00016  -0.00289
  38        5YY         0.00008  -0.00024   0.00016  -0.00016  -0.00289
  39        5ZZ         0.00008   0.00016   0.00016   0.00024  -0.00289
  40        5XY         0.00011  -0.00003  -0.00003  -0.00003   0.00124
  41        5XZ        -0.00011  -0.00003   0.00003  -0.00003  -0.00124
  42        5YZ        -0.00011   0.00003  -0.00003  -0.00003  -0.00124
  43 3   C  1S         -0.00002  -0.00013  -0.00013  -0.00013  -0.09360
  44        2S          0.00029   0.00071   0.00071   0.00071   0.17237
  45        2PX         0.00013   0.00006   0.00008   0.00006  -0.00390
  46        2PY         0.00013   0.00008   0.00006   0.00006  -0.00390
  47        2PZ         0.00013   0.00006   0.00006   0.00008  -0.00390
  48        3S         -0.00282  -0.00362  -0.00362  -0.00362   0.17261
  49        3PX         0.00046   0.00161  -0.00037   0.00161  -0.00850
  50        3PY         0.00046  -0.00037   0.00161   0.00161  -0.00850
  51        3PZ         0.00046   0.00161   0.00161  -0.00037  -0.00850
  52        4S          0.01057   0.01298   0.01298   0.01298   0.02858
  53        4PX        -0.00227  -0.00342  -0.00304  -0.00342  -0.00430
  54        4PY        -0.00227  -0.00304  -0.00342  -0.00342  -0.00430
  55        4PZ        -0.00227  -0.00342  -0.00342  -0.00304  -0.00430
  56        5XX         0.00008  -0.00016   0.00024  -0.00016  -0.00289
  57        5YY         0.00008   0.00024  -0.00016  -0.00016  -0.00289
  58        5ZZ         0.00008  -0.00016  -0.00016   0.00024  -0.00289
  59        5XY         0.00011   0.00003   0.00003  -0.00003   0.00124
  60        5XZ         0.00011  -0.00003   0.00003   0.00003   0.00124
  61        5YZ         0.00011   0.00003  -0.00003   0.00003   0.00124
  62 4   C  1S         -0.00002   0.00013  -0.00013   0.00013  -0.09360
  63        2S          0.00029  -0.00071   0.00071  -0.00071   0.17237
  64        2PX         0.00013  -0.00006   0.00008  -0.00006  -0.00390
  65        2PY        -0.00013   0.00008  -0.00006   0.00006   0.00390
  66        2PZ        -0.00013   0.00006  -0.00006   0.00008   0.00390
  67        3S         -0.00282   0.00362  -0.00362   0.00362   0.17261
  68        3PX         0.00046  -0.00161  -0.00037  -0.00161  -0.00850
  69        3PY        -0.00046  -0.00037  -0.00161   0.00161   0.00850
  70        3PZ        -0.00046   0.00161  -0.00161  -0.00037   0.00850
  71        4S          0.01057  -0.01298   0.01298  -0.01298   0.02858
  72        4PX        -0.00227   0.00342  -0.00304   0.00342  -0.00430
  73        4PY         0.00227  -0.00304   0.00342  -0.00342   0.00430
  74        4PZ         0.00227  -0.00342   0.00342  -0.00304   0.00430
  75        5XX         0.00008   0.00016   0.00024   0.00016  -0.00289
  76        5YY         0.00008  -0.00024  -0.00016   0.00016  -0.00289
  77        5ZZ         0.00008   0.00016  -0.00016  -0.00024  -0.00289
  78        5XY        -0.00011   0.00003  -0.00003  -0.00003  -0.00124
  79        5XZ        -0.00011  -0.00003  -0.00003   0.00003  -0.00124
  80        5YZ         0.00011  -0.00003  -0.00003  -0.00003   0.00124
  81 5   C  1S         -0.00002  -0.00013   0.00013   0.00013  -0.09360
  82        2S          0.00029   0.00071  -0.00071  -0.00071   0.17237
  83        2PX        -0.00013  -0.00006   0.00008   0.00006   0.00390
  84        2PY         0.00013   0.00008  -0.00006  -0.00006  -0.00390
  85        2PZ        -0.00013  -0.00006   0.00006   0.00008   0.00390
  86        3S         -0.00282  -0.00362   0.00362   0.00362   0.17261
  87        3PX        -0.00046  -0.00161  -0.00037   0.00161   0.00850
  88        3PY         0.00046  -0.00037  -0.00161  -0.00161  -0.00850
  89        3PZ        -0.00046  -0.00161   0.00161  -0.00037   0.00850
  90        4S          0.01057   0.01298  -0.01298  -0.01298   0.02858
  91        4PX         0.00227   0.00342  -0.00304  -0.00342   0.00430
  92        4PY        -0.00227  -0.00304   0.00342   0.00342  -0.00430
  93        4PZ         0.00227   0.00342  -0.00342  -0.00304   0.00430
  94        5XX         0.00008  -0.00016  -0.00024   0.00016  -0.00289
  95        5YY         0.00008   0.00024   0.00016   0.00016  -0.00289
  96        5ZZ         0.00008  -0.00016   0.00016  -0.00024  -0.00289
  97        5XY        -0.00011  -0.00003   0.00003  -0.00003  -0.00124
  98        5XZ         0.00011  -0.00003  -0.00003  -0.00003   0.00124
  99        5YZ        -0.00011  -0.00003  -0.00003   0.00003  -0.00124
 100 6   H  1S          0.00032   0.00042   0.00042   0.00019   0.06478
 101        2S          0.00069   0.00138   0.00138  -0.00130   0.01774
 102        3PX        -0.00010  -0.00022  -0.00006  -0.00004  -0.00377
 103        3PY        -0.00010  -0.00006  -0.00022  -0.00004  -0.00377
 104        3PZ        -0.00006  -0.00010  -0.00010   0.00001   0.00314
 105 7   H  1S          0.00032   0.00042   0.00019   0.00042   0.06478
 106        2S          0.00069   0.00138  -0.00130   0.00138   0.01774
 107        3PX        -0.00006  -0.00010   0.00001  -0.00010   0.00314
 108        3PY        -0.00010  -0.00006  -0.00004  -0.00022  -0.00377
 109        3PZ        -0.00010  -0.00022  -0.00004  -0.00006  -0.00377
 110 8   H  1S          0.00032   0.00019   0.00042   0.00042   0.06478
 111        2S          0.00069  -0.00130   0.00138   0.00138   0.01774
 112        3PX        -0.00010  -0.00004  -0.00006  -0.00022  -0.00377
 113        3PY        -0.00006   0.00001  -0.00010  -0.00010   0.00314
 114        3PZ        -0.00010  -0.00004  -0.00022  -0.00006  -0.00377
 115 9   H  1S          0.00032  -0.00042  -0.00042   0.00019   0.06478
 116        2S          0.00069  -0.00138  -0.00138  -0.00130   0.01774
 117        3PX         0.00010  -0.00022  -0.00006   0.00004   0.00377
 118        3PY         0.00010  -0.00006  -0.00022   0.00004   0.00377
 119        3PZ        -0.00006   0.00010   0.00010   0.00001   0.00314
 120 10  H  1S          0.00032  -0.00042  -0.00019   0.00042   0.06478
 121        2S          0.00069  -0.00138   0.00130   0.00138   0.01774
 122        3PX         0.00006  -0.00010   0.00001   0.00010  -0.00314
 123        3PY         0.00010  -0.00006  -0.00004   0.00022   0.00377
 124        3PZ        -0.00010   0.00022   0.00004  -0.00006  -0.00377
 125 11  H  1S          0.00032  -0.00019  -0.00042   0.00042   0.06478
 126        2S          0.00069   0.00130  -0.00138   0.00138   0.01774
 127        3PX         0.00010  -0.00004  -0.00006   0.00022   0.00377
 128        3PY         0.00006   0.00001  -0.00010   0.00010  -0.00314
 129        3PZ        -0.00010   0.00004   0.00022  -0.00006  -0.00377
 130 12  H  1S          0.00032   0.00019  -0.00042  -0.00042   0.06478
 131        2S          0.00069  -0.00130  -0.00138  -0.00138   0.01774
 132        3PX         0.00010   0.00004  -0.00006  -0.00022   0.00377
 133        3PY        -0.00006   0.00001   0.00010   0.00010   0.00314
 134        3PZ         0.00010   0.00004  -0.00022  -0.00006   0.00377
 135 13  H  1S          0.00032   0.00042  -0.00042  -0.00019   0.06478
 136        2S          0.00069   0.00138  -0.00138   0.00130   0.01774
 137        3PX         0.00010   0.00022  -0.00006  -0.00004   0.00377
 138        3PY        -0.00010  -0.00006   0.00022   0.00004  -0.00377
 139        3PZ         0.00006   0.00010  -0.00010   0.00001  -0.00314
 140 14  H  1S          0.00032   0.00042  -0.00019  -0.00042   0.06478
 141        2S          0.00069   0.00138   0.00130  -0.00138   0.01774
 142        3PX         0.00006   0.00010   0.00001  -0.00010  -0.00314
 143        3PY        -0.00010  -0.00006   0.00004   0.00022  -0.00377
 144        3PZ         0.00010   0.00022  -0.00004  -0.00006   0.00377
 145 15  H  1S          0.00032  -0.00019   0.00042  -0.00042   0.06478
 146        2S          0.00069   0.00130   0.00138  -0.00138   0.01774
 147        3PX        -0.00010   0.00004  -0.00006   0.00022  -0.00377
 148        3PY         0.00006   0.00001   0.00010  -0.00010  -0.00314
 149        3PZ         0.00010  -0.00004   0.00022  -0.00006   0.00377
 150 16  H  1S          0.00032  -0.00042   0.00042  -0.00019   0.06478
 151        2S          0.00069  -0.00138   0.00138   0.00130   0.01774
 152        3PX        -0.00010   0.00022  -0.00006   0.00004  -0.00377
 153        3PY         0.00010  -0.00006   0.00022  -0.00004   0.00377
 154        3PZ         0.00006  -0.00010   0.00010   0.00001  -0.00314
 155 17  H  1S          0.00032  -0.00042   0.00019  -0.00042   0.06478
 156        2S          0.00069  -0.00138  -0.00130  -0.00138   0.01774
 157        3PX        -0.00006   0.00010   0.00001   0.00010   0.00314
 158        3PY         0.00010  -0.00006   0.00004  -0.00022   0.00377
 159        3PZ         0.00010  -0.00022   0.00004  -0.00006   0.00377
                          11        12        13        14        15
                        (T2)--O   (T2)--O   (T2)--O   (A1)--O   (T2)--O
     Eigenvalues --    -0.68229  -0.68229  -0.68229  -0.45335  -0.41848
   1 1   Si 1S          0.00000   0.00000   0.00000   0.05197   0.00000
   2        2S          0.00000   0.00000   0.00000  -0.24332   0.00000
   3        2PX         0.00000   0.04970   0.00000   0.00000   0.00000
   4        2PY         0.04970   0.00000   0.00000   0.00000  -0.05858
   5        2PZ         0.00000   0.00000  -0.04970   0.00000   0.00000
   6        3S          0.00000   0.00000   0.00000   0.51908   0.00000
   7        3PX         0.00000  -0.09597   0.00000   0.00000   0.00000
   8        3PY        -0.09597   0.00000   0.00000   0.00000   0.13278
   9        3PZ         0.00000   0.00000   0.09597   0.00000   0.00000
  10        4S          0.00000   0.00000   0.00000   0.17588   0.00000
  11        4PX         0.00000   0.02531   0.00000   0.00000   0.00000
  12        4PY         0.02531   0.00000   0.00000   0.00000   0.07563
  13        4PZ         0.00000   0.00000  -0.02531   0.00000   0.00000
  14        5S          0.00000   0.00000   0.00000   0.07117   0.00000
  15        5PX         0.00000   0.00305   0.00000   0.00000   0.00000
  16        5PY         0.00305   0.00000   0.00000   0.00000   0.02096
  17        5PZ         0.00000   0.00000  -0.00305   0.00000   0.00000
  18        6XX         0.00000   0.00000   0.00000  -0.01145   0.00000
  19        6YY         0.00000   0.00000   0.00000  -0.01145   0.00000
  20        6ZZ         0.00000   0.00000   0.00000  -0.01145   0.00000
  21        6XY         0.00000   0.00000   0.02745   0.00000   0.00000
  22        6XZ        -0.02745   0.00000   0.00000   0.00000  -0.01516
  23        6YZ         0.00000  -0.02745   0.00000   0.00000   0.00000
  24 2   C  1S         -0.10029  -0.10029  -0.10029   0.02320  -0.00584
  25        2S          0.19015   0.19015   0.19015  -0.04878   0.00958
  26        2PX        -0.00972  -0.01863  -0.00972   0.10414  -0.11048
  27        2PY        -0.01863  -0.00972  -0.00972   0.10414   0.14423
  28        2PZ         0.00972   0.00972   0.01863  -0.10414   0.11048
  29        3S          0.18202   0.18202   0.18202  -0.04582   0.03050
  30        3PX        -0.00137  -0.00117  -0.00137   0.04321  -0.04136
  31        3PY        -0.00117  -0.00137  -0.00137   0.04321   0.06213
  32        3PZ         0.00137   0.00137   0.00117  -0.04321   0.04136
  33        4S          0.03338   0.03338   0.03338  -0.03490   0.03473
  34        4PX         0.00553   0.00726   0.00553   0.00326  -0.00173
  35        4PY         0.00726   0.00553   0.00553   0.00326   0.01050
  36        4PZ        -0.00553  -0.00553  -0.00726  -0.00326   0.00173
  37        5XX        -0.00391  -0.00441  -0.00391   0.00257  -0.00166
  38        5YY        -0.00441  -0.00391  -0.00391   0.00257   0.00065
  39        5ZZ        -0.00391  -0.00391  -0.00441   0.00257  -0.00166
  40        5XY        -0.00090  -0.00090  -0.00029   0.00540  -0.00468
  41        5XZ         0.00029   0.00090   0.00090  -0.00540  -0.00711
  42        5YZ         0.00090   0.00029   0.00090  -0.00540   0.00468
  43 3   C  1S          0.10029   0.10029  -0.10029   0.02320   0.00584
  44        2S         -0.19015  -0.19015   0.19015  -0.04878  -0.00958
  45        2PX        -0.00972  -0.01863   0.00972  -0.10414  -0.11048
  46        2PY        -0.01863  -0.00972   0.00972  -0.10414   0.14423
  47        2PZ        -0.00972  -0.00972   0.01863  -0.10414  -0.11048
  48        3S         -0.18202  -0.18202   0.18202  -0.04582  -0.03050
  49        3PX        -0.00137  -0.00117   0.00137  -0.04321  -0.04136
  50        3PY        -0.00117  -0.00137   0.00137  -0.04321   0.06213
  51        3PZ        -0.00137  -0.00137   0.00117  -0.04321  -0.04136
  52        4S         -0.03338  -0.03338   0.03338  -0.03490  -0.03473
  53        4PX         0.00553   0.00726  -0.00553  -0.00326  -0.00173
  54        4PY         0.00726   0.00553  -0.00553  -0.00326   0.01050
  55        4PZ         0.00553   0.00553  -0.00726  -0.00326  -0.00173
  56        5XX         0.00391   0.00441  -0.00391   0.00257   0.00166
  57        5YY         0.00441   0.00391  -0.00391   0.00257  -0.00065
  58        5ZZ         0.00391   0.00391  -0.00441   0.00257   0.00166
  59        5XY         0.00090   0.00090  -0.00029   0.00540   0.00468
  60        5XZ         0.00029   0.00090  -0.00090   0.00540  -0.00711
  61        5YZ         0.00090   0.00029  -0.00090   0.00540   0.00468
  62 4   C  1S         -0.10029   0.10029   0.10029   0.02320  -0.00584
  63        2S          0.19015  -0.19015  -0.19015  -0.04878   0.00958
  64        2PX         0.00972  -0.01863  -0.00972  -0.10414   0.11048
  65        2PY        -0.01863   0.00972   0.00972   0.10414   0.14423
  66        2PZ        -0.00972   0.00972   0.01863   0.10414  -0.11048
  67        3S          0.18202  -0.18202  -0.18202  -0.04582   0.03050
  68        3PX         0.00137  -0.00117  -0.00137  -0.04321   0.04136
  69        3PY        -0.00117   0.00137   0.00137   0.04321   0.06213
  70        3PZ        -0.00137   0.00137   0.00117   0.04321  -0.04136
  71        4S          0.03338  -0.03338  -0.03338  -0.03490   0.03473
  72        4PX        -0.00553   0.00726   0.00553  -0.00326   0.00173
  73        4PY         0.00726  -0.00553  -0.00553   0.00326   0.01050
  74        4PZ         0.00553  -0.00553  -0.00726   0.00326  -0.00173
  75        5XX        -0.00391   0.00441   0.00391   0.00257  -0.00166
  76        5YY        -0.00441   0.00391   0.00391   0.00257   0.00065
  77        5ZZ        -0.00391   0.00391   0.00441   0.00257  -0.00166
  78        5XY         0.00090  -0.00090  -0.00029  -0.00540   0.00468
  79        5XZ         0.00029  -0.00090  -0.00090  -0.00540  -0.00711
  80        5YZ        -0.00090   0.00029   0.00090   0.00540  -0.00468
  81 5   C  1S          0.10029  -0.10029   0.10029   0.02320   0.00584
  82        2S         -0.19015   0.19015  -0.19015  -0.04878  -0.00958
  83        2PX         0.00972  -0.01863   0.00972   0.10414   0.11048
  84        2PY        -0.01863   0.00972  -0.00972  -0.10414   0.14423
  85        2PZ         0.00972  -0.00972   0.01863   0.10414   0.11048
  86        3S         -0.18202   0.18202  -0.18202  -0.04582  -0.03050
  87        3PX         0.00137  -0.00117   0.00137   0.04321   0.04136
  88        3PY        -0.00117   0.00137  -0.00137  -0.04321   0.06213
  89        3PZ         0.00137  -0.00137   0.00117   0.04321   0.04136
  90        4S         -0.03338   0.03338  -0.03338  -0.03490  -0.03473
  91        4PX        -0.00553   0.00726  -0.00553   0.00326   0.00173
  92        4PY         0.00726  -0.00553   0.00553  -0.00326   0.01050
  93        4PZ        -0.00553   0.00553  -0.00726   0.00326   0.00173
  94        5XX         0.00391  -0.00441   0.00391   0.00257   0.00166
  95        5YY         0.00441  -0.00391   0.00391   0.00257  -0.00065
  96        5ZZ         0.00391  -0.00391   0.00441   0.00257   0.00166
  97        5XY        -0.00090   0.00090  -0.00029  -0.00540  -0.00468
  98        5XZ         0.00029  -0.00090   0.00090   0.00540  -0.00711
  99        5YZ        -0.00090   0.00029  -0.00090  -0.00540  -0.00468
 100 6   H  1S         -0.07814  -0.07814   0.07313  -0.05657   0.05226
 101        2S         -0.02395  -0.02395   0.01626  -0.03726   0.04203
 102        3PX         0.00423   0.00376  -0.00356  -0.00009  -0.00407
 103        3PY         0.00376   0.00423  -0.00356  -0.00009   0.00104
 104        3PZ        -0.00395  -0.00395   0.00410  -0.00479  -0.00160
 105 7   H  1S         -0.07814  -0.07313   0.07814  -0.05657   0.05226
 106        2S         -0.02395  -0.01626   0.02395  -0.03726   0.04203
 107        3PX        -0.00395  -0.00410   0.00395  -0.00479  -0.00160
 108        3PY         0.00376   0.00356  -0.00423  -0.00009   0.00104
 109        3PZ         0.00423   0.00356  -0.00376  -0.00009  -0.00407
 110 8   H  1S         -0.07313  -0.07814   0.07814  -0.05657  -0.14281
 111        2S         -0.01626  -0.02395   0.02395  -0.03726  -0.10675
 112        3PX         0.00356   0.00376  -0.00423  -0.00009   0.00262
 113        3PY        -0.00410  -0.00395   0.00395  -0.00479  -0.00121
 114        3PZ         0.00356   0.00423  -0.00376  -0.00009   0.00262
 115 9   H  1S          0.07814   0.07814   0.07313  -0.05657  -0.05226
 116        2S          0.02395   0.02395   0.01626  -0.03726  -0.04203
 117        3PX         0.00423   0.00376   0.00356   0.00009  -0.00407
 118        3PY         0.00376   0.00423   0.00356   0.00009   0.00104
 119        3PZ         0.00395   0.00395   0.00410  -0.00479   0.00160
 120 10  H  1S          0.07814   0.07313   0.07814  -0.05657  -0.05226
 121        2S          0.02395   0.01626   0.02395  -0.03726  -0.04203
 122        3PX        -0.00395  -0.00410  -0.00395   0.00479  -0.00160
 123        3PY         0.00376   0.00356   0.00423   0.00009   0.00104
 124        3PZ        -0.00423  -0.00356  -0.00376  -0.00009   0.00407
 125 11  H  1S          0.07313   0.07814   0.07814  -0.05657   0.14281
 126        2S          0.01626   0.02395   0.02395  -0.03726   0.10675
 127        3PX         0.00356   0.00376   0.00423   0.00009   0.00262
 128        3PY        -0.00410  -0.00395  -0.00395   0.00479  -0.00121
 129        3PZ        -0.00356  -0.00423  -0.00376  -0.00009  -0.00262
 130 12  H  1S         -0.07313   0.07814  -0.07814  -0.05657  -0.14281
 131        2S         -0.01626   0.02395  -0.02395  -0.03726  -0.10675
 132        3PX        -0.00356   0.00376  -0.00423   0.00009  -0.00262
 133        3PY        -0.00410   0.00395  -0.00395  -0.00479  -0.00121
 134        3PZ        -0.00356   0.00423  -0.00376   0.00009  -0.00262
 135 13  H  1S         -0.07814   0.07814  -0.07313  -0.05657   0.05226
 136        2S         -0.02395   0.02395  -0.01626  -0.03726   0.04203
 137        3PX        -0.00423   0.00376  -0.00356   0.00009   0.00407
 138        3PY         0.00376  -0.00423   0.00356  -0.00009   0.00104
 139        3PZ         0.00395  -0.00395   0.00410   0.00479   0.00160
 140 14  H  1S         -0.07814   0.07313  -0.07814  -0.05657   0.05226
 141        2S         -0.02395   0.01626  -0.02395  -0.03726   0.04203
 142        3PX         0.00395  -0.00410   0.00395   0.00479   0.00160
 143        3PY         0.00376  -0.00356   0.00423  -0.00009   0.00104
 144        3PZ        -0.00423   0.00356  -0.00376   0.00009   0.00407
 145 15  H  1S          0.07313  -0.07814  -0.07814  -0.05657   0.14281
 146        2S          0.01626  -0.02395  -0.02395  -0.03726   0.10675
 147        3PX        -0.00356   0.00376   0.00423  -0.00009  -0.00262
 148        3PY        -0.00410   0.00395   0.00395   0.00479  -0.00121
 149        3PZ         0.00356  -0.00423  -0.00376   0.00009   0.00262
 150 16  H  1S          0.07814  -0.07814  -0.07313  -0.05657  -0.05226
 151        2S          0.02395  -0.02395  -0.01626  -0.03726  -0.04203
 152        3PX        -0.00423   0.00376   0.00356  -0.00009   0.00407
[...]
  90        4S          0.05822
  91        4PX         0.03113
  92        4PY         0.03113
  93        4PZ         0.03113
  94        5XX        -0.01145
  95        5YY        -0.01145
  96        5ZZ        -0.01145
  97        5XY         0.00677
  98        5XZ         0.00677
  99        5YZ         0.00677
 100 6   H  1S          0.52396
 101        2S          0.30557
 102        3PX         0.00424
 103        3PY         0.00424
 104        3PZ         0.00422
 105 7   H  1S          0.52396
 106        2S          0.30557
 107        3PX         0.00422
 108        3PY         0.00424
 109        3PZ         0.00424
 110 8   H  1S          0.52396
 111        2S          0.30557
 112        3PX         0.00424
 113        3PY         0.00422
 114        3PZ         0.00424
 115 9   H  1S          0.52396
 116        2S          0.30557
 117        3PX         0.00424
 118        3PY         0.00424
 119        3PZ         0.00422
 120 10  H  1S          0.52396
 121        2S          0.30557
 122        3PX         0.00422
 123        3PY         0.00424
 124        3PZ         0.00424
 125 11  H  1S          0.52396
 126        2S          0.30557
 127        3PX         0.00424
 128        3PY         0.00422
 129        3PZ         0.00424
 130 12  H  1S          0.52396
 131        2S          0.30557
 132        3PX         0.00424
 133        3PY         0.00422
 134        3PZ         0.00424
 135 13  H  1S          0.52396
 136        2S          0.30557
 137        3PX         0.00424
 138        3PY         0.00424
 139        3PZ         0.00422
 140 14  H  1S          0.52396
 141        2S          0.30557
 142        3PX         0.00422
 143        3PY         0.00424
 144        3PZ         0.00424
 145 15  H  1S          0.52396
 146        2S          0.30557
 147        3PX         0.00424
 148        3PY         0.00422
 149        3PZ         0.00424
 150 16  H  1S          0.52396
 151        2S          0.30557
 152        3PX         0.00424
 153        3PY         0.00424
 154        3PZ         0.00422
 155 17  H  1S          0.52396
 156        2S          0.30557
 157        3PX         0.00422
 158        3PY         0.00424
 159        3PZ         0.00424
          Condensed to atoms (all electrons):
               1          2          3          4          5          6
     1  Si  12.026194   0.321203   0.321203   0.321203   0.321203  -0.026089
     2  C    0.321203   5.493221  -0.083604  -0.083604  -0.083604   0.010107
     3  C    0.321203  -0.083604   5.493221  -0.083604  -0.083604   0.383807
     4  C    0.321203  -0.083604  -0.083604   5.493221  -0.083604  -0.003586
     5  C    0.321203  -0.083604  -0.083604  -0.083604   5.493221  -0.003586
     6  H   -0.026089   0.010107   0.383807  -0.003586  -0.003586   0.528337
     7  H   -0.026089  -0.003586   0.383807   0.010107  -0.003586  -0.023778
     8  H   -0.026089  -0.003586   0.383807  -0.003586   0.010107  -0.023778
     9  H   -0.026089   0.383807   0.010107  -0.003586  -0.003586  -0.000019
    10  H   -0.026089   0.383807  -0.003586  -0.003586   0.010107   0.000001
    11  H   -0.026089   0.383807  -0.003586   0.010107  -0.003586   0.000001
    12  H   -0.026089  -0.003586   0.010107  -0.003586   0.383807   0.000001
    13  H   -0.026089  -0.003586  -0.003586   0.010107   0.383807  -0.000022
    14  H   -0.026089   0.010107  -0.003586  -0.003586   0.383807   0.000425
    15  H   -0.026089   0.010107  -0.003586   0.383807  -0.003586   0.000425
    16  H   -0.026089  -0.003586  -0.003586   0.383807   0.010107  -0.000022
    17  H   -0.026089  -0.003586   0.010107   0.383807  -0.003586   0.000001
               7          8          9         10         11         12
     1  Si  -0.026089  -0.026089  -0.026089  -0.026089  -0.026089  -0.026089
     2  C   -0.003586  -0.003586   0.383807   0.383807   0.383807  -0.003586
     3  C    0.383807   0.383807   0.010107  -0.003586  -0.003586   0.010107
     4  C    0.010107  -0.003586  -0.003586  -0.003586   0.010107  -0.003586
     5  C   -0.003586   0.010107  -0.003586   0.010107  -0.003586   0.383807
     6  H   -0.023778  -0.023778  -0.000019   0.000001   0.000001   0.000001
     7  H    0.528337  -0.023778   0.000001  -0.000022   0.000425   0.000001
     8  H   -0.023778   0.528337   0.000001   0.000425  -0.000022  -0.000019
     9  H    0.000001   0.000001   0.528337  -0.023778  -0.023778   0.000425
    10  H   -0.000022   0.000425  -0.023778   0.528337  -0.023778   0.000001
    11  H    0.000425  -0.000022  -0.023778  -0.023778   0.528337  -0.000022
    12  H    0.000001  -0.000019   0.000425   0.000001  -0.000022   0.528337
    13  H    0.000425   0.000001  -0.000022   0.000001   0.000425  -0.023778
    14  H   -0.000022   0.000001   0.000001  -0.000019   0.000001  -0.023778
    15  H    0.000001  -0.000022   0.000001   0.000001  -0.000019  -0.000022
    16  H    0.000001   0.000425  -0.000022   0.000425   0.000001   0.000001
    17  H   -0.000019   0.000001   0.000425  -0.000022   0.000001   0.000425
              13         14         15         16         17
     1  Si  -0.026089  -0.026089  -0.026089  -0.026089  -0.026089
     2  C   -0.003586   0.010107   0.010107  -0.003586  -0.003586
     3  C   -0.003586  -0.003586  -0.003586  -0.003586   0.010107
     4  C    0.010107  -0.003586   0.383807   0.383807   0.383807
     5  C    0.383807   0.383807  -0.003586   0.010107  -0.003586
     6  H   -0.000022   0.000425   0.000425  -0.000022   0.000001
     7  H    0.000425  -0.000022   0.000001   0.000001  -0.000019
     8  H    0.000001   0.000001  -0.000022   0.000425   0.000001
     9  H   -0.000022   0.000001   0.000001  -0.000022   0.000425
    10  H    0.000001  -0.000019   0.000001   0.000425  -0.000022
    11  H    0.000425   0.000001  -0.000019   0.000001   0.000001
    12  H   -0.023778  -0.023778  -0.000022   0.000001   0.000425
    13  H    0.528337  -0.023778   0.000001  -0.000019   0.000001
    14  H   -0.023778   0.528337   0.000425   0.000001  -0.000022
    15  H    0.000001   0.000425   0.528337  -0.023778  -0.023778
    16  H   -0.000019   0.000001  -0.023778   0.528337  -0.023778
    17  H    0.000001  -0.000022  -0.023778  -0.023778   0.528337
 Mulliken charges:
               1
     1  Si   1.002059
     2  C   -0.723835
     3  C   -0.723835
     4  C   -0.723835
     5  C   -0.723835
     6  H    0.157773
     7  H    0.157773
     8  H    0.157773
     9  H    0.157773
    10  H    0.157773
    11  H    0.157773
    12  H    0.157773
    13  H    0.157773
    14  H    0.157773
    15  H    0.157773
    16  H    0.157773
    17  H    0.157773
 Sum of Mulliken charges =   0.00000
 Mulliken charges with hydrogens summed into heavy atoms:
               1
     1  Si   1.002059
     2  C   -0.250515
     3  C   -0.250515
     4  C   -0.250515
     5  C   -0.250515
 Electronic spatial extent (au):  <R**2>=            673.9932
 Charge=              0.0000 electrons
 Dipole moment (field-independent basis, Debye):
    X=             -0.0000    Y=              0.0000    Z=             -0.0000  Tot=              0.0000
 Quadrupole moment (field-independent basis, Debye-Ang):
   XX=            -43.0544   YY=            -43.0544   ZZ=            -43.0544
   XY=              0.0000   XZ=             -0.0000   YZ=              0.0000
 Traceless Quadrupole moment (field-independent basis, Debye-Ang):
   XX=              0.0000   YY=              0.0000   ZZ=             -0.0000
   XY=              0.0000   XZ=             -0.0000   YZ=              0.0000
 Octapole moment (field-independent basis, Debye-Ang**2):
  XXX=             -0.0000  YYY=              0.0000  ZZZ=             -0.0000  XYY=             -0.0000
  XXY=             -0.0000  XXZ=              0.0000  XZZ=              0.0000  YZZ=              0.0000
  YYZ=             -0.0000  XYZ=             -5.8520
 Hexadecapole moment (field-independent basis, Debye-Ang**3):
 XXXX=           -337.0232 YYYY=           -337.0232 ZZZZ=           -337.0232 XXXY=             -0.0000
 XXXZ=             -0.0000 YYYX=             -0.0000 YYYZ=              0.0000 ZZZX=             -0.0000
 ZZZY=              0.0000 XXYY=           -113.4583 XXZZ=           -113.4583 YYZZ=           -113.4583
 XXYZ=             -0.0000 YYXZ=             -0.0000 ZZXY=              0.0000
 N-N= 2.442450277760D+02 E-N=-1.545665100584D+03  KE= 4.463356228821D+02
 Symmetry A    KE= 2.511795938903D+02
 Symmetry B1   KE= 6.505200966392D+01
 Symmetry B2   KE= 6.505200966392D+01
 Symmetry B3   KE= 6.505200966392D+01
 Orbital energies and kinetic energies (alpha):
                                 1                 2
   1         (A1)--O         -66.119705         92.098656
   2         (T2)--O         -10.162125         15.882706
   3         (T2)--O         -10.162125         15.882706
   4         (T2)--O         -10.162125         15.882706
   5         (A1)--O         -10.162123         15.884016
   6         (A1)--O          -5.263962         13.100971
   7         (T2)--O          -3.622702         12.132205
   8         (T2)--O          -3.622702         12.132205
   9         (T2)--O          -3.622702         12.132205
  10         (A1)--O          -0.718681          1.254392
  11         (T2)--O          -0.676342          1.308044
  12         (T2)--O          -0.676342          1.308044
  13         (T2)--O          -0.676342          1.308044
  14         (A1)--O          -0.457702          1.390331
  15         (T2)--O          -0.412065          0.905361
  16         (T2)--O          -0.412065          0.905361
  17         (T2)--O          -0.412065          0.905361
  18         (E)--O           -0.397096          0.930716
  19         (E)--O           -0.397096          0.930716
  20         (T1)--O          -0.379641          0.999648
  21         (T1)--O          -0.379641          0.999648
  22         (T1)--O          -0.379641          0.999648
  23         (T2)--O          -0.296501          1.298040
  24         (T2)--O          -0.296501          1.298040
  25         (T2)--O          -0.296501          1.298040
  26         (A1)--V          -0.011902          0.296217
  27         (T2)--V           0.019498          0.277246
  28         (T2)--V           0.019498          0.277246
  29         (T2)--V           0.019498          0.277246
  30         (T2)--V           0.056910          0.397203
  31         (T2)--V           0.056910          0.397203
  32         (T2)--V           0.056910          0.397203
  33         (A1)--V           0.072702          0.389668
  34         (E)--V            0.073694          0.258611
  35         (E)--V            0.073694          0.258611
  36         (T1)--V           0.102235          0.338473
  37         (T1)--V           0.102235          0.338473
  38         (T1)--V           0.102235          0.338473
  39         (T2)--V           0.109936          0.577426
  40         (T2)--V           0.109936          0.577426
  41         (T2)--V           0.109936          0.577426
  42         (T2)--V           0.129687          0.447898
  43         (T2)--V           0.129687          0.447898
  44         (T2)--V           0.129687          0.447898
  45         (A1)--V           0.144706          0.620597
  46         (E)--V            0.147731          0.775266
  47         (E)--V            0.147731          0.775266
  48         (T2)--V           0.167908          0.768700
  49         (T2)--V           0.167908          0.768700
  50         (T2)--V           0.167908          0.768700
  51         (T2)--V           0.223715          0.876990
  52         (T2)--V           0.223715          0.876990
  53         (T2)--V           0.223715          0.876990
  54         (A1)--V           0.228948          2.400444
  55         (T1)--V           0.255890          0.964583
  56         (T1)--V           0.255890          0.964583
  57         (T1)--V           0.255890          0.964583
  58         (T2)--V           0.340111          1.058781
  59         (T2)--V           0.340111          1.058781
  60         (T2)--V           0.340111          1.058781
  61         (A1)--V           0.400517          1.096744
  62         (T2)--V           0.439884          2.040726
  63         (T2)--V           0.439884          2.040726
  64         (T2)--V           0.439884          2.040726
  65         (A1)--V           0.482259          1.229240
  66         (E)--V            0.532223          1.844743
  67         (E)--V            0.532223          1.844743
  68         (T2)--V           0.665768          1.852462
  69         (T2)--V           0.665768          1.852462
  70         (T2)--V           0.665768          1.852462
  71         (A1)--V           0.777812          2.085673
  72         (E)--V            0.779733          1.860459
  73         (E)--V            0.779733          1.860459
  74         (T1)--V           0.782668          1.992616
  75         (T1)--V           0.782668          1.992616
  76         (T1)--V           0.782668          1.992616
  77         (T2)--V           0.814127          2.148199
  78         (T2)--V           0.814127          2.148199
  79         (T2)--V           0.814127          2.148199
  80         (T2)--V           0.915178          2.607987
  81         (T2)--V           0.915178          2.607987
  82         (T2)--V           0.915178          2.607987
  83         (T1)--V           0.968799          2.374687
  84         (T1)--V           0.968799          2.374687
  85         (T1)--V           0.968799          2.374687
  86         (E)--V            0.994593          2.258015
  87         (E)--V            0.994593          2.258015
  88         (T2)--V           0.998924          2.148153
  89         (T2)--V           0.998924          2.148153
  90         (T2)--V           0.998924          2.148153
  91         (A1)--V           1.134455          2.543153
  92         (T2)--V           1.150821          2.740440
  93         (T2)--V           1.150821          2.740440
  94         (T2)--V           1.150821          2.740440
  95         (T2)--V           1.289024          2.197150
  96         (T2)--V           1.289024          2.197150
  97         (T2)--V           1.289024          2.197150
  98         (T1)--V           1.432717          2.438612
  99         (T1)--V           1.432717          2.438612
 100         (T1)--V           1.432717          2.438612
 101         (A1)--V           1.455664          2.432200
 102         (E)--V            1.504721          2.511259
 103         (E)--V            1.504721          2.511259
 104         (T2)--V           1.644861          2.666380
 105         (T2)--V           1.644861          2.666380
 106         (T2)--V           1.644861          2.666380
 107         (A1)--V           1.967078          3.787623
 108         (A2)--V           2.049166          2.839958
 109         (T1)--V           2.049492          2.840858
 110         (T1)--V           2.049492          2.840858
 111         (T1)--V           2.049492          2.840858
 112         (E)--V            2.105896          3.148137
 113         (E)--V            2.105896          3.148137
 114         (T2)--V           2.115042          3.262653
 115         (T2)--V           2.115042          3.262653
 116         (T2)--V           2.115042          3.262653
 117         (T1)--V           2.154328          3.301629
 118         (T1)--V           2.154328          3.301629
 119         (T1)--V           2.154328          3.301629
 120         (T2)--V           2.192622          3.503260
 121         (T2)--V           2.192622          3.503260
 122         (T2)--V           2.192622          3.503260
 123         (T1)--V           2.319504          3.182910
 124         (T1)--V           2.319504          3.182910
 125         (T1)--V           2.319504          3.182910
 126         (T2)--V           2.367150          3.303268
 127         (T2)--V           2.367150          3.303268
 128         (T2)--V           2.367150          3.303268
 129         (E)--V            2.373215          3.351638
 130         (E)--V            2.373215          3.351638
 131         (A1)--V           2.635893          3.538469
 132         (T2)--V           2.693100          3.563083
 133         (T2)--V           2.693100          3.563083
 134         (T2)--V           2.693100          3.563083
 135         (E)--V            2.798783          3.772249
 136         (E)--V            2.798783          3.772249
 137         (T1)--V           2.842118          3.781804
 138         (T1)--V           2.842118          3.781804
 139         (T1)--V           2.842118          3.781804
 140         (T2)--V           2.858977          3.810464
 141         (T2)--V           2.858977          3.810464
 142         (T2)--V           2.858977          3.810464
 143         (A1)--V           3.121008          8.298816
 144         (T2)--V           3.230717          4.888352
 145         (T2)--V           3.230717          4.888352
 146         (T2)--V           3.230717          4.888352
 147         (A1)--V           3.247962          5.260600
 148         (E)--V            3.428057          5.059358
 149         (E)--V            3.428057          5.059358
 150         (T2)--V           3.452452          5.048444
 151         (T2)--V           3.452452          5.048444
 152         (T2)--V           3.452452          5.048444
 153         (T1)--V           3.468130          5.044774
 154         (T1)--V           3.468130          5.044774
 155         (T1)--V           3.468130          5.044774
 156         (T2)--V           4.475115         10.050025
 157         (T2)--V           4.475115         10.050025
 158         (T2)--V           4.475115         10.050025
 159         (A1)--V           4.495240         10.039798
 Total kinetic energy from orbitals= 4.463356228821D+02
 No NMR shielding tensors so no spin-rotation constants.
 Leave Link  601 at Thu Sep 12 00:17:13 2024, MaxMem=   268435456 cpu:         2.0
 (Enter /g100_work/pMI24_ChiCa/g09d1/g09d01/d01/build-node-6-2-59348/src/main/l9999.exe)
 1\1\GINC-R500N002\POpt\RB3LYP\6-31+G(d,p)\C4H12Si1\ECABIATI\12-Sep-202
 4\1\\#p B3LYP/6-31+g(d,p) opt(internal) pop=full gfinput\\tetramethyls
 ilane opt\\0,1\Si\C,1,csi2\C,1,csi3,2,csic3\C,1,csi4,2,csic4,3,dih4,0\
 C,1,csi5,3,csic5,2,dih5,0\H,3,hc6,1,hcsi6,2,dih6,0\H,3,hc7,1,hcsi7,6,d
 ih7,0\H,3,hc8,1,hcsi8,6,dih8,0\H,2,hc9,1,hcsi9,3,dih9,0\H,2,hc10,1,hcs
 i10,9,dih10,0\H,2,hc11,1,hcsi11,9,dih11,0\H,5,hc12,1,hcsi12,3,dih12,0\
 H,5,hc13,1,hcsi13,12,dih13,0\H,5,hc14,1,hcsi14,12,dih14,0\H,4,hc15,1,h
 csi15,2,dih15,0\H,4,hc16,1,hcsi16,15,dih16,0\H,4,hc17,1,hcsi17,15,dih1
 7,0\\csi2=1.89546366\csi3=1.89546366\csic3=109.47122063\csi4=1.8954636
 6\csic4=109.47122063\dih4=120.\csi5=1.89546366\csic5=109.47122063\dih5
 =120.\hc6=1.09644611\hcsi6=111.25232426\dih6=180.\hc7=1.09644611\hcsi7
 =111.25232426\dih7=120.\hc8=1.09644611\hcsi8=111.25232426\dih8=240.\hc
 9=1.09644611\hcsi9=111.25232426\dih9=180.\hc10=1.09644611\hcsi10=111.2
 5232426\dih10=120.\hc11=1.09644611\hcsi11=111.25232426\dih11=240.\hc12
 =1.09644611\hcsi12=111.25232426\dih12=180.\hc13=1.09644611\hcsi13=111.
 25232426\dih13=120.\hc14=1.09644611\hcsi14=111.25232426\dih14=240.\hc1
 5=1.09644611\hcsi15=111.25232426\dih15=180.\hc16=1.09644611\hcsi16=111
 .25232426\dih16=120.\hc17=1.09644611\hcsi17=111.25232426\dih17=240.\\V
 ersion=EM64L-G09RevD.01\State=1-A1\HF=-449.2184228\RMSD=9.817e-09\RMSF
 =1.878e-05\Dipole=0.,0.,0.\Quadrupole=0.,0.,0.,0.,0.,0.\PG=TD [O(Si1),
 4C3(C1),6SGD(H2)]\\@


 GOOD SENSE ABOUT TRIVIALITIES IS BETTER THAN NONSENSE
 ABOUT THINGS THAT MATTER

                                       -- MAX BEERBOHM
 Job cpu time:       0 days  0 hours  1 minutes 56.1 seconds.
 File lengths (MBytes):  RWF=     14 Int=      0 D2E=      0 Chk=      3 Scr=      1
 Normal termination of Gaussian 09 at Thu Sep 12 00:17:13 2024.
