[Molden Format]
[Molpro variables]
_NUMVAR=  693.0000000000000    
_EV2006= 0.3674930886769165E-01
_EV= 0.3674932534394180E-01
_KJOULE= 0.3808798324128737E-03
_KJOULE/MOL= 0.3808798324128737E-03
_CM= 0.4556335267302901E-05
_CM-1= 0.4556335267302901E-05
_KCAL= 0.1593601117815568E-02
_KCAL/MOL= 0.1593601117815568E-02
_KELVIN2006= 0.3166828861084835E-05
_KELVIN= 0.3166814820820034E-05
_HERTZ2006= 0.1519829850815779E-15
_HERTZ= 0.1519829846011223E-15
_HZ2006= 0.1519829850815779E-15
_HZ= 0.1519829846011223E-15
_TOA2006= 0.5291772490000000    
_TOA= 0.5291772090000000    
_TOANG2006= 0.5291772490000000    
_TOANG= 0.5291772090000000    
_TORAD= 0.1745329251994330E-01
_TOCM=  219474.6306700000    
_TODEBYE=  2.541580000000000    
_TOEV2006=  27.21139610000000    
_TOEV=  27.21138390000000    
_TOHERTZ2006=  6579683899900000.    
_TOHERTZ=  6579683920700000.    
_TOHZ2006=  6579683899900000.    
_TOHZ=  6579683920700000.    
_TOK2006=  315773.3000000000    
_TOK=  315774.7000000000    
_TOKCAL=  627.5096000000000    
_TOKELVIN2006=  315773.3000000000    
_TOKELVIN=  315774.7000000000    
_TOKJ=  2625.500000000000    
_TOKJOULE=  2625.500000000000    
_ANG2006=  1.889725988578923    
_ANG=  1.889726131421507    
_ANGSTROM2006=  1.889725988578923    
_ANGSTROM=  1.889726131421507    
_IGNORE_UNDEF=  2.000000000000000    
_STRICTCHECK=  0.000000000000000    
_SEW_ONEEL=  0.000000000000000    
_CPPDONE=FALSE
_DKROLL_DONE=  0.000000000000000    
_FOCKDONE=TRUE
_GRADONE=FALSE
_HESSDONE=TRUE
_INTDONE=TRUE
_SCFDONE=TRUE
_MODUL_CUDA=FALSE
_MODUL_SLATER=FALSE
_MODUL_MRCC=FALSE
_MRCC_EXEC=
_FITC_AO_SAVED=FALSE
_FITC_MO_SAVED=FALSE
_SHARED_FS=TRUE
_LSTYP=SEWARD
_INTYP=INTS
_GEOMTYP=ZMAT
_GRADTYP=ALASKA
_DIRECT=FALSE
_SYNCM=  0.000000000000000    
_DFTNAME=B3LYP
_DFTFUNC=B88
_BASIS=STO-3G
_ZSYMEL=
_ZORIENT=  1.000000000000000    
_NELEC=  10.00000000000000    
!SPIN=  0.000000000000000    
_OPTCONV= 0.1576334414644746E-03
_QSDSTEP=  0.000000000000000    
_QSDIRC=  0.000000000000000    
_PROGRAM=FREQ
_CPUSTEP=  0.000000000000000    
_SYSSTEP=  0.000000000000000    
_WALLSTEP= 0.1000000000000000E-01
!DFSCF=  0.000000000000000    
!SCSGRD=  0.000000000000000    
_BASINP=  610.0000000000000    
_CPUTOT=  64.97000000000000    
_CPUSORT= 0.3000000000000114E-01
_SYSSORT= 0.9999999999999787E-02
_WALLSORT= 0.4000000003725290E-01
_DFTEXFAC= 0.2000000000000000    
_DFTFAC= 0.7200000000000000    
_DFTFUN= -5.563590910202062    
_DFTFUNS= -6.583625102227369    
_DMX= 0.4970047121211074E-04
_DMY= 0.9662048938707812E-11
_DMZ=-0.3975483077678366E-05
_FREQUENCIES= 0.4744828697469698E-04
_ENERGY= -40.00285958835389    
_ENUC=  13.34943765581886    
_FREQSTEP=  22.00000000000000    
_GRADENERG= -40.00285618300062    
_GRADEXFAC= 0.2000000000000000    
_GRADMETHOD=  1.000000000000000    
_VIRIAL= 0.1507321356722546E-02
_GRID=  1800.200000000000    
!GRID_FREEZE= -1.000000000000000    
_GRID_SPARSITY= 0.2076843198338563E-02
_GRID_RMAX=  6.555305911770614    
_ITERATIONS=  2.000000000000000    
_LASTNELEC=  10.00000000000000    
_LASTSPIN=  0.000000000000000    
_LASTSYM=  1.000000000000000    
_MPP_PROG=  0.000000000000000    
_NGRID=  13496.00000000000    
_NPROC_MPP=  1.000000000000000    
_NPROC_SMP=  1.000000000000000    
_NUMSTEP=  0.000000000000000    
_OPTCONVMX= 0.1523927940230495E-03
_OPTCONVRMS= 0.5254448048815818E-04
_OPTGRAD= 0.8750480059656370E-04
_OPTGRADMX= 0.7028798714587451E-04
_OPTGRADRMS= 0.2916826686552123E-04
_OPTSTEP=  3.000000000000000    
_ORBITAL=  2101.200000000000    
_PI=  3.141592653589793    
_SEIG_MIN= 0.2248485605834658    
_SEWPROP=TRUE
_STATUS=  1.000000000000000    
_SYSTOT=  4.160000000000000    
_VERSION=  2010001.000000000    
_WALLTOT=  71.34000000000000    
_ZPE= 0.5005482708608667E-01
_DATE=17-Aug-24
_LASTORB=RKS
_MACHINE=Linux-3.10.0-1160.108.1.el7.x86_64/molmod(x86_64) 64 bit serial version
_OUTPUT=/home/ospite/Desktop/MMfP/Project6/CH4/molpro/DFT/ch4_sto-3g.xml
_PGROUP=C1
_TIME=17:12:14
_LIBMOL=/usr/local/molpro/molpros_2010_1_Linux_x86_64_i8/lib/
!SURFREC=  0.000000000000000    
!POLYREC=  0.000000000000000    
!DIPREC=  0.000000000000000    
!VSCFREC=  0.000000000000000    
!VCIREC=  0.000000000000000    
!PVCIREC=  0.000000000000000    
!VMP2REC=  0.000000000000000    
!VMCSCFREC=  0.000000000000000    
!GAREC=  0.000000000000000    
!SCFORB=  21002.00000000000    
!NEWMOL=  0.000000000000000    
!NEWSYM=  0.000000000000000    
_SLFILES=slscratch
_NGSSTO=  9.000000000000000    
_SIN=SIN
_COS=COS
_TAN=TAN
_ACOS=ACOS
_ASIN=ASIN
_ATAN=ATAN
_COSH=COSH
_SINH=SINH
_TANH=TANH
_ABS=ABS
_MOD=MOD
_ERF=ERF
_REFC=REFC
_ERFC=ERFC
_HYPOT=HYPOT
_J0=J0
_J1=J1
_JN=JN
_GAMMA=GAMMA
_LGAMMA=LGAMMA
_Y0=Y0
_Y1=Y1
_YN=YN
_EXP=EXP
_LOG=LOG
_LOG10=LOG10
_SQRT=SQRT
_INT=INT
_NINT=NINT
_MAX=MAX
_MIN=MIN
_COSMO=  0.000000000000000    
_COSMOIT=  0.000000000000000    
_COSMOES=  0.000000000000000    
_COSMOEDS=  0.000000000000000    
_COSMOEC=  0.000000000000000    
_COSMOEDCORR=  0.000000000000000    
_FEPSI=  1.000000000000000    
_SL_IsMM=  0.000000000000000    
_SL_NSYM=  0.000000000000000    
_SL_System_BitSw=  0.000000000000000    
_SL_Unique_atoms=  0.000000000000000    
_SL_GRAD=  0.000000000000000    
_SL_MAXUPD_Hess=  5.000000000000000    
_SL_N_PRINT_COD=  5.000000000000000    
_SL_PRINT_CODES=  0.000000000000000    
_SL_BasType=  0.000000000000000    
_SL_Energy_Pred=  0.000000000000000    
_SL_New_Coords=  0.000000000000000    
_SL_Total_Nuclea=  0.000000000000000    
_SL_Highest_Mltp=  0.000000000000000    
_SL_Ref_Geom=  0.000000000000000    
!LATTICE= -1.000000000000000    
!NEWLATTICE=  0.000000000000000    
!LATGRAD_VAR=FALSE
!SEW_LATTICE=  1.000000000000000    
!LOCAL=  0.000000000000000    
!SAVEOCC=  0.000000000000000    
!SAVEDOM= -1.000000000000000    
!RESTDOM= -1.000000000000000    
!SAVEDOM_HF= -1.000000000000000    
!RESTDOM_HF= -1.000000000000000    
!HESSREC=  5300.200000000000    
!FREQREC=  5400.200000000000    
!NMODREC=  5450.200000000000    
!GTASKS=  0.000000000000000    
!HTASKS=  5500.200000000000    
!THRCHG= 0.1000000000000000    
!DEBUG= -1.000000000000000    
!CFIT_CPHF=  0.000000000000000    
!RDOMAUX_CPHF=  5.000000000000000    
!THRAO_CPHF= 0.9999999999999999E-11
!THRMO_CPHF= 0.9999999999999999E-11
!THROV_CPHF= 0.1000000000000000E-11
!THRSW_CPHF= 0.1000000000000000E-09
!THRPROD_CPHF= 0.9999999999999999E-11
!THRAOPR_CPHF= 0.1000000000000000E-11
!CFIT_SCFGRD=  0.000000000000000    
!RDOMAUX_SCFGRD=  7.000000000000000    
!THRAO_SCFGRD= 0.9999999999999999E-11
!THRMO_SCFGRD= 0.9999999999999999E-11
!THROV_SCFGRD= 0.1000000000000000E-11
!THRSW_SCFGRD= 0.1000000000000000E-09
!THRPROD_SCFGRD= 0.9999999999999999E-11
!THRAOPR_SCFGRD= 0.1000000000000000E-11
!LOCFIT_SCF=  0.000000000000000    
!LOCFIT_MP2= -1.000000000000000    
_RIDOM=  0.000000000000000    
!CC2_METHOD=  0.000000000000000    
_BASIS2006=FALSE
_SVDDEL= -1.000000000000000    
_SVDDELA= -1.000000000000000    
_SVDDELP= -1.000000000000000    
_SVDDELF= -1.000000000000000    
_SVDDELS= -1.000000000000000    
_SVDDEL_ABS= -1.000000000000000    
_SVDDELA_ABS= -1.000000000000000    
_SVDDELP_ABS= -1.000000000000000    
_SVDDELF_ABS= -1.000000000000000    
_SVDDELS_ABS= -1.000000000000000    
_MAXBASIS=  0.000000000000000    
!OPT_CONICAL=  0.000000000000000    
!CLEARSP_JGRID=  0.000000000000000    
D=  1.097018064306363    
A=  109.4708873730080    
T=  119.9865269913069    
GX1=-0.4816883477946651E-04
GY1= -0.000000000000000    
GZ1= 0.1364328268525558E-04
GX2= 0.6497527518310403    
GY2= -0.000000000000000    
GZ2=  1.968604987164832    
GX3=  1.639364622634534    
GY3= -0.000000000000000    
GZ3= -1.268812118937115    
GX4= -1.144271688068880    
GY4= -1.692882658951079    
GZ4=-0.3499777234110054    
GX5= -1.144271688068880    
GY5=  1.692882658951079    
GZ5=-0.3499777234110054    
CX1=-0.4816883477946725E-04
CY1=  0.000000000000000    
CZ1= 0.1364328268525609E-04
H1X2= 0.6497527518310403    
H1Y2=  0.000000000000000    
H1Z2=  1.968604987164832    
H2X3=  1.639364622634534    
H2Y3=  0.000000000000000    
H2Z3= -1.268812118937115    
H3X4= -1.144271688068880    
H3Y4= -1.692882658951079    
H3Z4=-0.3499777234110054    
H4X5= -1.144271688068880    
H4Y5=  1.692882658951079    
H4Z5=-0.3499777234110054    
[Atoms] Angs
C     1    6        -0.0000254898       -0.0000000000        0.0000072197
H     2    1         0.3438343478       -0.0000000000        1.0417408927
H     3    1         0.8675143955       -0.0000000000       -0.6714264558
H     4    1        -0.6055224982       -0.8958349206       -0.1852002349
H     5    1        -0.6055224982        0.8958349206       -0.1852002349
[GTO]
  1 0
 s    3  1.00
  0.7161683700D+02  0.1543289700D+00
  0.1304509600D+02  0.5353281400D+00
  0.3530512200D+01  0.4446345400D+00
 s    3  1.00
  0.2941249400D+01 -0.9996723008D-01
  0.6834831000D+00  0.3995128303D+00
  0.2222899000D+00  0.7001154705D+00
 p    3  1.00
  0.2941249400D+01  0.1559162721D+00
  0.6834831000D+00  0.6076837282D+00
  0.2222899000D+00  0.3919573953D+00
  
  2 0
 s    3  1.00
  0.3425250900D+01  0.1543289707D+00
  0.6239137300D+00  0.5353281424D+00
  0.1688554000D+00  0.4446345420D+00
  
  3 0
 s    3  1.00
  0.3425250900D+01  0.1543289707D+00
  0.6239137300D+00  0.5353281424D+00
  0.1688554000D+00  0.4446345420D+00
  
  4 0
 s    3  1.00
  0.3425250900D+01  0.1543289707D+00
  0.6239137300D+00  0.5353281424D+00
  0.1688554000D+00  0.4446345420D+00
  
  5 0
 s    3  1.00
  0.3425250900D+01  0.1543289707D+00
  0.6239137300D+00  0.5353281424D+00
  0.1688554000D+00  0.4446345420D+00


[MO]
 Sym=      1.1
 Ene=      -9.9924
 Spin= Alpha
 Occup=    2.000000
1 0.99030539452952
2 0.046258605835427
3 0.000001913517914
4 0.000000000000001
5 -0.000000549231354
6 -0.009172522532633
7 -0.009172833809620
8 -0.009172361825497
9 -0.009172361825496
 Sym=      2.1
 Ene=      -0.6571
 Spin= Alpha
 Occup=    2.000000
1 -0.22444797265395
2 0.63674432460491
3 0.000041737211172
4 0.000000000001071
5 -0.000012829753751
6 0.17876813637975
7 0.17877789828209
8 0.17876416710004
9 0.17876416709933
 Sym=      3.1
 Ene=      -0.3563
 Spin= Alpha
 Occup=    2.000000
1 -0.000000000000170
2 0.000000000001589
3 0.000000001262576
4 0.57774214580698
5 0.000000000472218
6 0.000000000754756
7 0.000000000634257
8 -0.42158398859153
9 0.42158398719867
 Sym=      4.1
 Ene=      -0.3563
 Spin= Alpha
 Occup=    2.000000
1 0.000006028622440
2 -0.000022525960834
3 -0.016335124038690
4 0.000000000508577
5 -0.57753660671836
6 -0.49470957760848
7 0.30434266108486
8 0.095184409082745
9 0.095184409823606
 Sym=      5.1
 Ene=      -0.3562
 Spin= Alpha
 Occup=    2.000000
1 0.000021530378986
2 -0.000080025848278
3 0.57756205517343
4 -0.000000001250858
5 -0.016334339893226
6 0.14790571436288
7 0.41713602348952
8 -0.28251850580869
9 -0.28251850763069
 Sym=      6.1
 Ene=       0.4585
 Spin= Alpha
 Occup=    0.000000
1 -0.000331617555081
2 0.002054109329669
3 -1.09197847298129
4 -0.000000007371797
5 -0.040636034099648
6 0.36599775673251
7 0.80708010162798
8 -0.58820945719847
9 -0.58820944560551
 Sym=      7.1
 Ene=       0.4586
 Spin= Alpha
 Occup=    0.000000
1 0.000104054344459
2 -0.000644362537756
3 0.040631732047936
4 -0.000000003562385
5 -1.09207894424679
6 0.98691290914455
7 -0.67448360077918
8 -0.15569089870550
9 -0.15569089310296
 Sym=      8.1
 Ene=       0.4587
 Spin= Alpha
 Occup=    0.000000
1 0.000000000005329
2 -0.000000000032988
3 -0.000000007231877
4 1.09291552934672
5 -0.000000003833310
6 0.000000005703736
7 0.000000003263546
8 0.85949667443758
9 -0.85949668335123
 Sym=      9.1
 Ene=       0.4919
 Spin= Alpha
 Occup=    0.000000
1 0.25451800609308
2 -1.59440573183406
3 -0.001546922188672
4 -0.000000000029611
5 0.000424456310226
6 0.65906449148124
7 0.66029896228005
8 0.65829924211388
9 0.65829924216275
 [FREQ]
      0.00
      0.00
      0.00
      0.00
      0.00
      0.00
   1535.08
   1535.38
   1535.57
   1761.95
   1762.26
   3281.92
   3519.61
   3519.86
   3519.90
 [FR-COORD]
C         -0.0000481688       -0.0000000000        0.0000136433
H          0.6497527518       -0.0000000000        1.9686049872
H          1.6393646226       -0.0000000000       -1.2688121189
H         -1.1442716881       -1.6928826590       -0.3499777234
H         -1.1442716881        1.6928826590       -0.3499777234
 [FR-NORM-COORD]
 Vibration                    1
         -0.01077889         -0.01525088          0.21012965
          0.07024039         -0.21678328          0.18338647
         -0.06299864         -0.17617071          0.14265804
         -0.26437616          0.16592713          0.16286810
          0.21400992          0.16592713          0.35157445
 Vibration                    2
          0.22366999          0.07632168          0.04328323
          0.31784625          0.14561888          0.01219713
          0.16297011          0.16013959         -0.03514532
          0.31260253         -0.00021353          0.12273212
          0.10125069         -0.00021353          0.07331230
 Vibration                    3
         -0.01644218         -0.09422339          0.07662066
         -0.06715313         -0.21114941          0.09335954
          0.01624280          0.43090104          0.11885197
          0.36249958         -0.29822456         -0.17551137
         -0.37735236         -0.29822456          0.26980224
 Vibration                    4
         -0.00780894         -0.09708112          0.06700254
          0.03995642          0.43622576          0.05123595
         -0.03859538         -0.31312196          0.02722428
          0.08872649         -0.25571755          0.51871297
         -0.12132856         -0.25571755         -0.32918164
 Vibration                    5
         -0.08598967          0.18830283          0.07593106
         -0.26048001          0.35647063          0.13352757
          0.02647544          0.26495309          0.22124395
          0.09722700          0.06592221          0.06888862
         -0.20716185          0.06592221         -0.11986795
 Vibration                    6
         -0.06680881          0.05015054         -0.01341322
          0.46686257          0.06465852         -0.18956972
         -0.41077862          0.15408624         -0.45784659
         -0.06851153         -0.00904903          0.27849745
         -0.25486652         -0.00904903          0.31505814
 Vibration                    7
         -0.11254739          0.00000000          0.01344351
          0.51186564         -0.00000000         -0.18978721
          0.10732140         -0.00000000          0.27876453
          0.36098542         -0.28293711         -0.12458769
          0.36098542          0.28293711         -0.12458769
 Vibration                    8
         -0.01344124          0.00000000         -0.11254730
         -0.13540303         -0.00000000         -0.05842290
          0.33275782         -0.00000000          0.34618187
         -0.01859191         -0.12488859          0.52669894
         -0.01859191          0.12488859          0.52669894
 Vibration                    9
         -0.00000000         -0.11333953         -0.00000000
         -0.00000000          0.55623973         -0.00000000
          0.00000000          0.55668896          0.00000000
         -0.29598684          0.11883435         -0.09022640
          0.29598684          0.11883435          0.09022640
 Vibration                   10
          0.00004976         -0.00000000          0.00001867
          0.47276914          0.00000000         -0.15595511
          0.30464309         -0.00000000          0.39372174
         -0.38900263          0.28766313         -0.11899453
         -0.38900263         -0.28766313         -0.11899453
 Vibration                   11
         -0.00000000         -0.00005866         -0.00000000
         -0.00000000          0.49832041          0.00000000
         -0.00000000         -0.49780262         -0.00000000
          0.14546261          0.00009060         -0.47627359
         -0.14546261          0.00009060          0.47627359
 Vibration                   12
         -0.00000691          0.00000000          0.00002250
          0.15604807          0.00000000          0.47277486
          0.39396893         -0.00000000         -0.30488434
         -0.27496733         -0.40665512         -0.08407933
         -0.27496733          0.40665512         -0.08407933
 Vibration                   13
         -0.08090394          0.00000000          0.03911983
         -0.04144952          0.00000000         -0.09974594
          0.63314108          0.00000000         -0.49206461
          0.18619541          0.28635202          0.06282183
          0.18619541         -0.28635202          0.06282183
 Vibration                   14
         -0.03912249          0.00000000         -0.08090498
          0.25362551          0.00000000          0.77202075
         -0.13881208          0.00000000          0.09719206
          0.17569260          0.26513161          0.04744098
          0.17569260         -0.26513161          0.04744098
 Vibration                   15
         -0.00000000         -0.08987629         -0.00000000
          0.00000000         -0.00823523          0.00000000
         -0.00000000         -0.00824009         -0.00000000
          0.37308416          0.54373783          0.11411413
         -0.37308416          0.54373783         -0.11411413
