
 Primary working directories    : /data/scratch
 Secondary working directories  : /data/scratch
 Wavefunction directory         : /home/ospite/wfu/
 Main file repository           : /data/scratch/

 ARCHNAME  : Linux/x86_64
 FC        : /usr/bin/gfortran
 FCVERSION : 4.8.5
 BLASLIB   : 
 id        : polimi

 Nodes     nprocs
 molmod       1

 Using default tuning parameters: mindgm=1; mindgv=20; mindgc=4; mindgr=1; noblas=0; mincuda=1000; minvec=7
 default implementation of scratch files=df  

 ***,methane with imposed symmetry and 6-31G basis set
 memory,100,m
 
 basis=6-31G
 symmetry,y
 
 geometry={angstrom
 C
 H1, C, d
 H2, C, d, H1, a
 H3, C, d, H1, a, H2, t
 H4, C, d, H1, a, H2, -t
 }
 
 d=1.09 Ang
 a=109.47 Deg
 t=120.0 Deg
 
 {dfunc,b3lyp}
 ks
 optg
 frequencies
 put,molden,ch4_6-31G.molpro

 Variables initialized (661), CPU time= 0.01 sec
 Commands  initialized (458), CPU time= 0.05 sec, 486 directives.
 Default parameters read. Elapsed time= 0.18 sec

 Checking input...
 Passed
1


                                         ***  PROGRAM SYSTEM MOLPRO  ***
                         Copyright, University College Cardiff Consultants Limited, 2008

                                    Version 2010.1 linked Mar  6 2018 16:01:50


 **********************************************************************************************************************************
 LABEL *   methane with imposed symmetry and 6-31G basis set                             
 Linux-3.10.0-1160.108.1.el7.x86_64/molmod(x86_64) 64 bit serial version                 DATE: 17-Aug-24          TIME: 17:13:42  
 **********************************************************************************************************************************

 SHA1:             d90fb18d49a3be29a79769f900c595ef3b8176e2
 **********************************************************************************************************************************

 Variable memory set to  100000000 words,  buffer space   230000 words

 SETTING BASIS          =    6-31G
 ZSYMEL=Y  

 SETTING D              =         1.09000000  ANG                             
 SETTING A              =       109.47000000  DEG                             
 SETTING T              =       120.00000000  DEG                             


 Recomputing integrals since basis changed


 Using spherical harmonics

 Library entry C      S 6-31G                selected for orbital group  1
 Library entry C      P 6-31G                selected for orbital group  1
 Library entry H      S 6-31G                selected for orbital group  2

1PROGRAM * SEWARD (Integral evaluation for generally contracted gaussian basis sets)     Author: Roland Lindh, 1990

 Geometry written to block  1 of record 700

 Orientation using atomic masses  
 Molecule type: Symmetric top,     Order of principal axis = 3
 User-specified symmetry elements: Y
 Symmetry elements: Y
 Rotational constants:     158.2574080    158.2574080    158.2538321 GHz  (calculated with average atomic masses)

 Point group  Cs  



 ATOMIC COORDINATES

 NR  ATOM    CHARGE       X              Y              Z

   1  C       6.00   -0.000000000    0.000000000   -0.000007798
   2  H1      1.00   -0.000000000    0.000000000    2.059793685
   3  H2      1.00    1.942014089    0.000000000   -0.686566920
   4  H3      1.00   -0.971007045   -1.681833536   -0.686566920
   5  H4      1.00   -0.971007045    1.681833536   -0.686566920

 Bond lengths in Bohr (Angstrom)

 1-2  2.059801483  1-3  2.059801483  1-4  2.059801483  1-5  2.059801483
     ( 1.090000000)     ( 1.090000000)     ( 1.090000000)     ( 1.090000000)

 Bond angles

  2-1-3  109.47000000   2-1-4  109.47000000   2-1-5  109.47000000   3-1-4  109.47244124

  3-1-5  109.47244124   4-1-5  109.47244124

 NUCLEAR CHARGE:                   10
 NUMBER OF PRIMITIVE AOS:          38
 NUMBER OF SYMMETRY AOS:           38
 NUMBER OF CONTRACTIONS:           17   (  13A'  +   4A"  )
 NUMBER OF CORE ORBITALS:           1   (   1A'  +   0A"  )
 NUMBER OF VALENCE ORBITALS:        8   (   6A'  +   2A"  )


 NUCLEAR REPULSION ENERGY   13.43538921


 Eigenvalues of metric

         1 0.205E-01 0.744E-01 0.744E-01 0.387E+00 0.417E+00 0.417E+00 0.479E+00 0.621E+00
         2 0.744E-01 0.417E+00 0.621E+00 0.247E+01


 Contracted 2-electron integrals neglected if value below      1.0D-11
 AO integral compression algorithm  1   Integral accuracy      1.0D-11

     0.262 MB (compressed) written to integral file (100.0%)


 NUMBER OF SORTED TWO-ELECTRON INTEGRALS:       6971.     BUFFER LENGTH:  32768
 NUMBER OF SEGMENTS:   1  SEGMENT LENGTH:       6971      RECORD LENGTH: 524288

 Memory used in sort:       0.56 MW

 SORT1 READ       10251. AND WROTE        6261. INTEGRALS IN      1 RECORDS. CPU TIME:     0.00 SEC, REAL TIME:     0.00 SEC
 SORT2 READ        6261. AND WROTE        6971. INTEGRALS IN      1 RECORDS. CPU TIME:     0.02 SEC, REAL TIME:     0.02 SEC

 FILE SIZES:   FILE 1:     2.8 MBYTE,  FILE 4:     4.2 MBYTE,   TOTAL:      7.1 MBYTE

 OPERATOR DM      FOR CENTER  0  COORDINATES:    0.000000    0.000000    0.000000


 **********************************************************************************************************************************
 DATASETS  * FILE   NREC   LENGTH (MB)   RECORD NAMES
              1      19        2.63       500      610      700      900      950      970     1000      129      960     1100   
                                          VAR    BASINP    GEOM    SYMINP    ZMAT    AOBASIS   BASIS     P2S    ABASIS      S 
                                         1400     1410     1200     1210     1080     1600     1650     1300     1700   
                                           T        V       H0       H01     AOSYM     SMH    MOLCAS    ERIS     OPER   

 PROGRAMS   *        TOTAL       INT
 CPU TIMES  *         0.61      0.14
 REAL TIME  *         0.80 SEC
 DISK USED  *         7.59 MB      
 **********************************************************************************************************************************

 Density functional group B3LYP=B88+DIRAC+LYP+VWN5
 Functional: B88(Automatically generated B88)                                  Gradient terms: 1
 Functional: DIRAC(Automatically generated DIRAC)                              Gradient terms: 0
 Functional: LYP(Lee-Yang-Parr gradient-corrected correlation energy (1988))   Gradient terms: 1
 Functional: VWN5(Automatically generated VWN5)                                Gradient terms: 0
 Use grid at  1800.2


 Exact exchange will be calculated, factor:  0.2000

 Functional: B88                       Factor:  0.7200
 Functional: DIRAC                     Factor:  0.0800
 Functional: LYP                       Factor:  0.8100
 Functional: VWN5                      Factor:  0.1900

 Generated new metagrid on record  1800.2 with target accuracy 1.0D-06 and 7496 points in CPU time    0.2
 Computed new grid on record 1800.1 in CPU time    0.3
   17400 words reserved for DFT integration

 PROGRAM * RKS-SCF (Restricted closed shell Kohn-Sham)     Authors: W. Meyer, H.-J. Werner, P.J. Knowles, 1993

 NUMBER OF ELECTRONS:       5+    5-
 CONVERGENCE THRESHOLDS:    1.00E-05 (Density)    1.00E-06 (Energy)
 MAX. NUMBER OF ITERATIONS:       60
 INTERPOLATION TYPE:            DIIS
 INTERPOLATION STEPS:              2 (START)      1 (STEP)
 LEVEL SHIFTS:                  0.00 (CLOSED)  0.00 (OPEN) 



 Use fine grid record 1800.2 for energy threshold 1.0D-06
 Orbital guess generated from atomic densities. Full valence occupancy:    7   2

 Molecular orbital dump at record        2100.2

 Initial alpha occupancy:   4   1
 Initial beta  occupancy:   4   1
 Wave function symmetry:    1

 ITERATION    DDIFF          GRAD             ENERGY        2-EL.EN.            DIPOLE MOMENTS         DIIS
    1      0.000D+00      0.000D+00       -40.39536398     66.377944    0.00005    0.00000   -0.00001    0
    2      0.000D+00      0.540D-01       -40.37398523     59.271801    0.00008    0.00000   -0.00009    1
    3      0.820D-01      0.592D-01       -40.47460638     62.965588    0.00005    0.00000   -0.00004    2
    4      0.442D-01      0.493D-03       -40.47461643     62.926577    0.00005    0.00000   -0.00005    3
    5      0.858D-03      0.817D-04       -40.47461661     62.931209    0.00005    0.00000   -0.00005    4
    6      0.529D-04      0.346D-05       -40.47461661     62.931383    0.00005    0.00000   -0.00005    3
    7      0.304D-05      0.200D-06       -40.47461661     62.931356    0.00005    0.00000   -0.00005    0

 Final occupancy:   4   1

 !RKS STATE 1.1 Energy                -40.474616611813
 Nuclear energy                        13.43538921
 One-electron energy                  -79.81804264
 Two-electron energy                   31.46567779
 SCF exchange energy                   -6.57711469     Factor=0.2000
 Density functional                    -5.55764097     B88=-6.57629722 DIRAC=-5.89238891 LYP=-0.29447290 VWN5=-0.59364640
 Virial quotient                       -1.00550240
 !RKS STATE 1.1 Dipole moment           0.00005180     0.00000000    -0.00004528
 Dipole moment /Debye                   0.00013167     0.00000000    -0.00011507

 Orbital energies:

         1.1          2.1          3.1          4.1          5.1          6.1
    -10.155047    -0.690354    -0.386958    -0.386950     0.121202     0.179789

         1.2          2.2          3.2
     -0.386952     0.179761     0.546686


 **********************************************************************************************************************************
 DATASETS  * FILE   NREC   LENGTH (MB)   RECORD NAMES
              1      20        2.87       500      610      700      900      950      970     1000      129      960     1100   
                                          VAR    BASINP    GEOM    SYMINP    ZMAT    AOBASIS   BASIS     P2S    ABASIS      S 
                                         1400     1410     1200     1210     1080     1600     1650     1300     1700     1800   
                                           T        V       H0       H01     AOSYM     SMH    MOLCAS    ERIS     OPER     GRID   

              2       4        0.30       700     1000     1800     2100   
                                         GEOM     BASIS    GRID      RKS  

 PROGRAMS   *        TOTAL        KS       INT
 CPU TIMES  *         2.02      1.41      0.14
 REAL TIME  *         2.38 SEC
 DISK USED  *         7.59 MB      
 **********************************************************************************************************************************


 PROGRAM * OPT (Geometry optimization)     Authors: F. Eckert and H.-J. Werner


 BFGS update of hessian

 *** Long output written to logfile /home/ospite/Desktop/MMfP/Project6/CH4/molpro/DFT/ch4_Pople631.log ***


 Geometry optimization using default procedure for command KS-SCF

 Geometry written to block  1 of record 700

 Making model hessian for Z-matrix coordinates

 Quadratic Steepest Descent - Minimum Search

 Optimization point 1

 Variable                      Last           Current        Next           Gradient       Hessian

 E(KS-SCF000) / Hartree      0.00000000   -40.47461661     0.00000000
 D / ANG                     0.00000000     1.09000000     1.09256863    -0.01765272     6.87242182
 A / DEG                     0.00000000   109.47000000   109.46818081     0.00000042     0.00023257
 T / DEG                     0.00000000   120.00000000   120.00918920    -0.00000138     0.00014996
 Convergence:                0.00000000  (line search)     0.00485676     0.00934178  (total)

 Freezing grid

 Optimization point 2

 Variable                      Last           Current        Next           Gradient       Hessian

 E(KS-SCF000) / Hartree    -40.47461661   -40.47464651     0.00000000
 D / ANG                     1.09000000     1.09256863     1.09346549    -0.00455760     5.09610554
 A / DEG                   109.47000000   109.46818081   109.46120737     0.00000119     0.00022930
 T / DEG                   120.00000000   120.00918920   119.99418050     0.00000164     0.00014803
 Convergence:                0.00000000  (line search)     0.00171926     0.00241457  (total)

 Optimization point 3

 Variable                      Last           Current        Next           Gradient       Hessian

 E(KS-SCF000) / Hartree    -40.47464651   -40.47462462     0.00000000
 D / ANG                     1.09256863     1.09346549     1.09350445    -0.00010269     4.91792729
 A / DEG                   109.46818081   109.46120737   109.47998423    -0.00000429     0.00023513
 T / DEG                   120.00918920   119.99418050   120.00406420    -0.00000151     0.00014908
 Convergence:                0.00000000  (line search)     0.00037759     0.00026608  (total)

 Optimization point 4

 Variable                      Last           Current        Next           Gradient       Hessian

 E(KS-SCF000) / Hartree    -40.47462462   -40.47462569     0.00000000
 D / ANG                     1.09346549     1.09350445     1.09348563     0.00009731     5.17467050
 A / DEG                   109.46120737   109.47998423   109.47873095     0.00000030     0.00024130
 T / DEG                   119.99418050   120.00406420   120.00326926     0.00000014     0.00015069
 Convergence:                0.00000000  (line search)     0.00004399     0.00005490  (total)

 END OF GEOMETRY OPTIMIZATION.    TOTAL CPU:         9.0 SEC

 ITER.   ENERGY(OLD)    ENERGY(NEW)      DE          GRADMAX     GRADNORM    GRADRMS     STEPMAX     STEPLEN     STEPRMS
   1   -40.47461661   -40.47464651    -0.00002989  0.00934142  0.00934178  0.00311393  0.00485401  0.00485676  0.00161892
   2   -40.47464651   -40.47462462     0.00002189  0.00241178  0.00241457  0.00080486  0.00169483  0.00171926  0.00057309
   3   -40.47462462   -40.47462569    -0.00000107  0.00024574  0.00026608  0.00008869  0.00032772  0.00037759  0.00012586
   4   -40.47462569   -40.47462602    -0.00000033  0.00005149  0.00005490  0.00001830  0.00003555  0.00004399  0.00001466

 Geometry written to block  1 of record 700


 **********************************************************************************************************************************
 DATASETS  * FILE   NREC   LENGTH (MB)   RECORD NAMES
              1      20        2.87       500      610      700      900      950      970     1000      129      960     1100   
                                          VAR    BASINP    GEOM    SYMINP    ZMAT    AOBASIS   BASIS     P2S    ABASIS      S 
                                         1400     1410     1200     1210     1080     1600     1650     1300     1700     1800   
                                           T        V       H0       H01     AOSYM     SMH    MOLCAS    ERIS     OPER     GRID   

              2       4        0.30       700     1000     1800     2100   
                                         GEOM     BASIS    GRID      RKS  

 PROGRAMS   *        TOTAL      OPTG        KS       INT
 CPU TIMES  *        11.05      9.03      1.41      0.14
 REAL TIME  *        12.51 SEC
 DISK USED  *         7.63 MB      
 **********************************************************************************************************************************


 PROGRAM * HESSIAN

 Computing numerical hessian using default procedure for command KS-SCF

 Symmetry elements for unique displacements: Y  

 Using no symmetry in wavefunction calculations

 Running default procedure: KS-SCF000


 Recomputing wavefunction at reference geometry

 Numerically approximating hessian using central gradient differences

 Task list generated. Total number of displacements:     21

    5 tasks completed, CPU=    17.34 sec, Elapsed=    17.78 sec
   10 tasks completed, CPU=    34.89 sec, Elapsed=    35.77 sec
   15 tasks completed, CPU=    52.35 sec, Elapsed=    53.62 sec
   20 tasks completed, CPU=    69.82 sec, Elapsed=    71.48 sec

 Numerical KS-SCF000 hessian completed. CPU-time:    73.32 sec, Elapsed:    75.10 sec

 KS-SCF hessian saved to record  5300.2

 FREQUENCIES * CALCULATION OF HARMONIC VIBRATIONAL SPECTRA FOR KS-SCF


 Permanent Dipole Moment [debye]
   1-  3    0.001196    0.000000    0.000851

 Dipole Moment Norm    0.0014678 [debye]

 Dipole Moment Derivatives [debye/ang]
                   1             2             3             4             5             6             7             8
         1    -0.1764721     0.0000000    -0.0015686     0.4367215     0.0000000     0.1311511    -0.7054409     0.0000000
         2    -0.0000000    -0.1762350     0.0000000    -0.0000000     0.4507169     0.0000000     0.0000000     0.4519098
         3     0.0002985     0.0000000    -0.1755586     0.1304294     0.0000000    -0.7548801     0.2729233     0.0000000
                   9            10            11            12            13            14            15
         1     0.2751443     0.2225825    -0.4315758    -0.2023615     0.2225825     0.4315758    -0.2023615
         2    -0.0000000    -0.4313648    -0.3632069    -0.3816965     0.4313648    -0.3632069     0.3816965
         3     0.3858027    -0.2018219    -0.3811031     0.2723033    -0.2018219     0.3811031     0.2723033

 Projecting out rotations and translations

   Low Vibration      Wavenumber
        Nr             [1/cm] 
        1                0.00
        2                0.00
        3                0.00
        4                0.00
        5                0.00
        6                0.00

     Vibration        Wavenumber
        Nr             [1/cm] 
        1             1402.20
        2             1402.31
        3             1402.51
        4             1600.05
        5             1600.34
        6             3042.35
        7             3164.44
        8             3164.61
        9             3164.87

 FREQUENCIES * CALCULATION OF NORMAL MODES FOR KS-SCF


 Atomic Coordinates

  Nr  Atom  Charge       X              Y              Z

   1   C     6.00    0.000006834    0.000000000    0.000049156
   2   H1    1.00   -0.222887403    0.000000000    2.054380943
   3   H2    1.00    2.011085264    0.000000000   -0.474845020
   4   H3    1.00   -0.894139648   -1.687065259   -0.790060845
   5   H4    1.00   -0.894139648    1.687065259   -0.790060845

 Frequencies dumped to record   5400.2

 Gradient norm at reference geometry: 0.97309D-04

 Normal Modes

                              1 A`        2 A``       3 A`        4 A``       5 A` 
 Wavenumbers [cm-1]         1402.20     1402.31     1402.51     1600.05     1600.34
 Intensities [km/mol]         24.89       24.96       24.95        0.00        0.00
 Intensities [relative]       79.98       80.21       80.18        0.00        0.00
           CX1              0.07540     0.00000    -0.08793    -0.00000    -0.00000
           CY1             -0.00000    -0.11583    -0.00000    -0.00012    -0.00000
           CZ1             -0.08791     0.00000    -0.07540    -0.00000     0.00005
           H1X2            -0.30559    -0.00000     0.46084     0.00000     0.49497
           H1Y2             0.00000     0.55657     0.00000    -0.49738     0.00000
           H1Z2            -0.09690     0.00000     0.00634     0.00000     0.05380
           H2X3             0.13578    -0.00000     0.05941     0.00000     0.11460
           H2Y3             0.00000     0.55546     0.00000     0.49861    -0.00000
           H2Z3             0.30472    -0.00000     0.44773     0.00000     0.48443
           H3X4            -0.36437    -0.22321     0.26380    -0.32999    -0.30477
           H3Y4            -0.00437     0.13414    -0.29823     0.00009     0.28766
           H3Z4             0.41990    -0.19787     0.22221     0.37305    -0.26940
           H4X5            -0.36437     0.22321     0.26380     0.32999    -0.30477
           H4Y5             0.00437     0.13414     0.29823     0.00009    -0.28766
           H4Z5             0.41990     0.19787     0.22221    -0.37305    -0.26940

                              6 A`        7 A``       8 A`        9 A` 
 Wavenumbers [cm-1]         3042.35     3164.44     3164.61     3164.87
 Intensities [km/mol]          0.00       31.12       31.08       31.05
 Intensities [relative]        0.00      100.00       99.89       99.78
           CX1              0.00010     0.00000    -0.07265     0.04720
           CY1              0.00000    -0.08664     0.00000     0.00000
           CZ1              0.00002    -0.00000    -0.04720    -0.07267
           H1X2            -0.05385    -0.00000    -0.06133    -0.06832
           H1Y2             0.00000    -0.02387     0.00000     0.00000
           H1Z2             0.49531     0.00000     0.36689     0.73021
           H2X3             0.48379    -0.00000     0.54930    -0.58246
           H2Y3             0.00000    -0.02385     0.00000     0.00000
           H2Z3            -0.11439     0.00000    -0.14754     0.12070
           H3X4            -0.21560     0.29888     0.18886     0.04417
           H3Y4            -0.40692     0.54008     0.39409     0.05883
           H3Z4            -0.19056     0.26411     0.17157     0.00756
           H4X5            -0.21560    -0.29888     0.18886     0.04417
           H4Y5             0.40692     0.54008    -0.39409    -0.05883
           H4Z5            -0.19056    -0.26411     0.17157     0.00756


 Normal Modes of low/zero frequencies

                                  1           2           3           4           5
 Wavenumbers [cm-1]            0.00        0.00        0.00        0.00        0.00
 Intensities [km/mol]          0.00        0.00        0.00        0.00        0.00
 Intensities [relative]        0.00        0.00        0.00        0.00        0.00
           CX1             -0.09950     0.09265     0.00740     0.04482     0.03796
           CY1             -0.04518     0.10045     0.15992     0.11099     0.03361
           CZ1              0.16335    -0.07040     0.06945     0.06007     0.13022
           H1X2            -0.07222    -0.13877     0.23971     0.21838    -0.41394
           H1Y2            -0.14268     0.02722     0.52740    -0.35156     0.09853
           H1Z2             0.16631    -0.09551     0.09466     0.07890     0.08119
           H2X3            -0.10580     0.14615    -0.04630     0.00470     0.14242
           H2Y3            -0.35423    -0.26551     0.01341     0.40033     0.21118
           H2Z3             0.13665     0.15614    -0.15796    -0.10983     0.57260
           H3X4            -0.39547    -0.14798    -0.13495     0.13512     0.37756
           H3Y4             0.15812     0.32007     0.04937     0.19768    -0.08765
           H3Z4             0.06419    -0.26703     0.46660    -0.22721     0.00484
           H4X5             0.17549     0.51130    -0.02894    -0.17897     0.04596
           H4Y5             0.15812     0.32007     0.04937     0.19768    -0.08765
           H4Z5             0.28627    -0.07523    -0.12547     0.49844    -0.13777

                                  6
 Wavenumbers [cm-1]            0.00
 Intensities [km/mol]          0.00
 Intensities [relative]        0.00
           CX1              0.20086
           CY1             -0.10573
           CZ1              0.07282
           H1X2             0.35927
           H1Y2            -0.04283
           H1Z2             0.09001
           H2X3             0.16424
           H2Y3            -0.18273
           H2Z3            -0.08225
           H3X4             0.08616
           H3Y4            -0.09868
           H3Z4             0.18758
           H4X5             0.19372
           H4Y5            -0.09868
           H4Z5             0.09595


 Zero point energy:  0.04543506 [H]     9971.84 [1/CM]      119.29 [KJ/MOL]
 Frequency information read from record  5400.2

 Dump information in style MOLDEN to ch4_6-31g.molpro                                                                

 Molecular orbitals read from record     2101.2  Type=RKS/CANONICAL (state 1.1)
 Occupation numbers read from record     2101.2  Type=RKS/RHF (state 1.1)
 Orbital energies read from record       2101.2  Type=RKS/CANONICAL (state 1.1)
 Redundancy group numbers read from rec  2101.2  Type=RKS/RHF (state 1.1)

 DUMP ORBITAL  1.1 AS ORBITAL    1  occ=    2.0000  eig=  -10.1565  GROUP=   2
 DUMP ORBITAL  2.1 AS ORBITAL    2  occ=    2.0000  eig=   -0.6893  GROUP=   2
 DUMP ORBITAL  3.1 AS ORBITAL    3  occ=    2.0000  eig=   -0.3864  GROUP=   2
 DUMP ORBITAL  4.1 AS ORBITAL    4  occ=    2.0000  eig=   -0.3864  GROUP=   2
 DUMP ORBITAL  5.1 AS ORBITAL    5  occ=    2.0000  eig=   -0.3864  GROUP=   2

 Total charge:      10.000000
 Frequency information read from record  5400.2

 **********************************************************************************************************************************

        KS-SCF          KS-SCF          KS-SCF          KS-SCF          KS-SCF          KS-SCF          KS-SCF          KS-SCF  
    -40.47464415    -40.47463931    -40.47463978    -40.47463186    -40.47463157    -40.47463891    -40.47463894    -40.47464112
 **********************************************************************************************************************************
 Variable memory released
