
 Primary working directories    : /data/scratch
 Secondary working directories  : /data/scratch
 Wavefunction directory         : /home/ospite/wfu/
 Main file repository           : /data/scratch/

 ARCHNAME  : Linux/x86_64
 FC        : /usr/bin/gfortran
 FCVERSION : 4.8.5
 BLASLIB   : 
 id        : polimi

 Nodes     nprocs
 molmod       1

 Using default tuning parameters: mindgm=1; mindgv=20; mindgc=4; mindgr=1; noblas=0; mincuda=1000; minvec=7
 default implementation of scratch files=df  

 ***,methane with imposed symmetry and 6-31+G basis set
 memory,100,m
 
 basis=6-31+G
 symmetry,y
 
 geometry={angstrom
 C
 H1, C, d
 H2, C, d, H1, a
 H3, C, d, H1, a, H2, t
 H4, C, d, H1, a, H2, -t
 }
 
 d=1.09 Ang
 a=109.47 Deg
 t=120.0 Deg
 
 {dfunc,b3lyp}
 ks
 optg
 frequencies
 put,molden,ch4_6-31+G.molpro

 Variables initialized (661), CPU time= 0.01 sec
 Commands  initialized (458), CPU time= 0.05 sec, 486 directives.
 Default parameters read. Elapsed time= 0.27 sec

 Checking input...
 Passed
1


                                         ***  PROGRAM SYSTEM MOLPRO  ***
                         Copyright, University College Cardiff Consultants Limited, 2008

                                    Version 2010.1 linked Mar  6 2018 16:01:50


 **********************************************************************************************************************************
 LABEL *   methane with imposed symmetry and 6-31+G basis set                            
 Linux-3.10.0-1160.108.1.el7.x86_64/molmod(x86_64) 64 bit serial version                 DATE: 17-Aug-24          TIME: 17:01:20  
 **********************************************************************************************************************************

 SHA1:             d90fb18d49a3be29a79769f900c595ef3b8176e2
 **********************************************************************************************************************************

 Variable memory set to  100000000 words,  buffer space   230000 words

 SETTING BASIS          =    6-31+G
 ZSYMEL=Y  

 SETTING D              =         1.09000000  ANG                             
 SETTING A              =       109.47000000  DEG                             
 SETTING T              =       120.00000000  DEG                             


 Recomputing integrals since basis changed


 Using spherical harmonics

 Library entry C      S 6-31G                selected for orbital group  1
 Library entry C      S 6-31++G              selected for orbital group  1
 Library entry C      P 6-31G                selected for orbital group  1
 Library entry C      P 6-31++G              selected for orbital group  1
 Library entry H      S 6-31G                selected for orbital group  2

1PROGRAM * SEWARD (Integral evaluation for generally contracted gaussian basis sets)     Author: Roland Lindh, 1990

 Geometry written to block  1 of record 700

 Orientation using atomic masses  
 Molecule type: Symmetric top,     Order of principal axis = 3
 User-specified symmetry elements: Y
 Symmetry elements: Y
 Rotational constants:     158.2574080    158.2574080    158.2538321 GHz  (calculated with average atomic masses)

 Point group  Cs  



 ATOMIC COORDINATES

 NR  ATOM    CHARGE       X              Y              Z

   1  C       6.00   -0.000000000    0.000000000   -0.000007798
   2  H1      1.00   -0.000000000    0.000000000    2.059793685
   3  H2      1.00    1.942014089    0.000000000   -0.686566920
   4  H3      1.00   -0.971007045   -1.681833536   -0.686566920
   5  H4      1.00   -0.971007045    1.681833536   -0.686566920

 Bond lengths in Bohr (Angstrom)

 1-2  2.059801483  1-3  2.059801483  1-4  2.059801483  1-5  2.059801483
     ( 1.090000000)     ( 1.090000000)     ( 1.090000000)     ( 1.090000000)

 Bond angles

  2-1-3  109.47000000   2-1-4  109.47000000   2-1-5  109.47000000   3-1-4  109.47244124

  3-1-5  109.47244124   4-1-5  109.47244124

 NUCLEAR CHARGE:                   10
 NUMBER OF PRIMITIVE AOS:          42
 NUMBER OF SYMMETRY AOS:           42
 NUMBER OF CONTRACTIONS:           21   (  16A'  +   5A"  )
 NUMBER OF CORE ORBITALS:           1   (   1A'  +   0A"  )
 NUMBER OF VALENCE ORBITALS:        8   (   6A'  +   2A"  )


 NUCLEAR REPULSION ENERGY   13.43538921


 Eigenvalues of metric

         1 0.140E-01 0.696E-01 0.696E-01 0.117E+00 0.239E+00 0.239E+00 0.454E+00 0.573E+00
         2 0.696E-01 0.239E+00 0.573E+00 0.903E+00 0.280E+01


 Contracted 2-electron integrals neglected if value below      1.0D-11
 AO integral compression algorithm  1   Integral accuracy      1.0D-11

     0.262 MB (compressed) written to integral file (100.0%)


 NUMBER OF SORTED TWO-ELECTRON INTEGRALS:      15556.     BUFFER LENGTH:  32768
 NUMBER OF SEGMENTS:   1  SEGMENT LENGTH:      15556      RECORD LENGTH: 524288

 Memory used in sort:       0.57 MW

 SORT1 READ       23955. AND WROTE       13105. INTEGRALS IN      1 RECORDS. CPU TIME:     0.00 SEC, REAL TIME:     0.00 SEC
 SORT2 READ       13105. AND WROTE       15556. INTEGRALS IN      1 RECORDS. CPU TIME:     0.03 SEC, REAL TIME:     0.03 SEC

 FILE SIZES:   FILE 1:     2.9 MBYTE,  FILE 4:     4.2 MBYTE,   TOTAL:      7.1 MBYTE

 OPERATOR DM      FOR CENTER  0  COORDINATES:    0.000000    0.000000    0.000000


 **********************************************************************************************************************************
 DATASETS  * FILE   NREC   LENGTH (MB)   RECORD NAMES
              1      19        2.68       500      610      700      900      950      970     1000      129      960     1100   
                                          VAR    BASINP    GEOM    SYMINP    ZMAT    AOBASIS   BASIS     P2S    ABASIS      S 
                                         1400     1410     1200     1210     1080     1600     1650     1300     1700   
                                           T        V       H0       H01     AOSYM     SMH    MOLCAS    ERIS     OPER   

 PROGRAMS   *        TOTAL       INT
 CPU TIMES  *         0.65      0.14
 REAL TIME  *         1.05 SEC
 DISK USED  *         7.60 MB      
 **********************************************************************************************************************************

 Density functional group B3LYP=B88+DIRAC+LYP+VWN5
 Functional: B88(Automatically generated B88)                                  Gradient terms: 1
 Functional: DIRAC(Automatically generated DIRAC)                              Gradient terms: 0
 Functional: LYP(Lee-Yang-Parr gradient-corrected correlation energy (1988))   Gradient terms: 1
 Functional: VWN5(Automatically generated VWN5)                                Gradient terms: 0
 Use grid at  1800.2


 Exact exchange will be calculated, factor:  0.2000

 Functional: B88                       Factor:  0.7200
 Functional: DIRAC                     Factor:  0.0800
 Functional: LYP                       Factor:  0.8100
 Functional: VWN5                      Factor:  0.1900

 Generated new metagrid on record  1800.2 with target accuracy 1.0D-06 and 7496 points in CPU time    0.3
 Computed new grid on record 1800.1 in CPU time    0.3
   20556 words reserved for DFT integration

 PROGRAM * RKS-SCF (Restricted closed shell Kohn-Sham)     Authors: W. Meyer, H.-J. Werner, P.J. Knowles, 1993

 NUMBER OF ELECTRONS:       5+    5-
 CONVERGENCE THRESHOLDS:    1.00E-05 (Density)    1.00E-06 (Energy)
 MAX. NUMBER OF ITERATIONS:       60
 INTERPOLATION TYPE:            DIIS
 INTERPOLATION STEPS:              2 (START)      1 (STEP)
 LEVEL SHIFTS:                  0.00 (CLOSED)  0.00 (OPEN) 



 Use fine grid record 1800.2 for energy threshold 1.0D-06
 Orbital guess generated from atomic densities. Full valence occupancy:    7   2

 Molecular orbital dump at record        2100.2

 Initial alpha occupancy:   4   1
 Initial beta  occupancy:   4   1
 Wave function symmetry:    1

 ITERATION    DDIFF          GRAD             ENERGY        2-EL.EN.            DIPOLE MOMENTS         DIIS
    1      0.000D+00      0.000D+00       -40.39877349     66.298685    0.00009    0.00000    0.00005    0
    2      0.000D+00      0.437D-01       -40.37024386     58.926603    0.00039    0.00000    0.00054    1
    3      0.615D-01      0.495D-01       -40.47693120     62.873346    0.00014    0.00000    0.00015    2
    4      0.332D-01      0.626D-03       -40.47695415     62.811221    0.00016    0.00000    0.00019    3
    5      0.821D-03      0.780D-04       -40.47695440     62.816768    0.00016    0.00000    0.00018    4
    6      0.480D-04      0.547D-05       -40.47695440     62.817158    0.00016    0.00000    0.00018    3
    7      0.434D-05      0.447D-06       -40.47695440     62.817081    0.00016    0.00000    0.00018    0

 Final occupancy:   4   1

 !RKS STATE 1.1 Energy                -40.476954404684
 Nuclear energy                        13.43538921
 One-electron energy                  -79.77105862
 Two-electron energy                   31.40854029
 SCF exchange energy                   -6.56442698     Factor=0.2000
 Density functional                    -5.54982528     B88=-6.56707890 DIRAC=-5.88334474 LYP=-0.29415924 VWN5=-0.59258898
 Virial quotient                       -1.00582323
 !RKS STATE 1.1 Dipole moment           0.00015977     0.00000000     0.00018371
 Dipole moment /Debye                   0.00040607     0.00000000     0.00046691

 Orbital energies:

         1.1          2.1          3.1          4.1          5.1          6.1
    -10.160473    -0.696235    -0.392675    -0.392668     0.019663     0.062519

         1.2          2.2          3.2
     -0.392664     0.065905     0.185372


 **********************************************************************************************************************************
 DATASETS  * FILE   NREC   LENGTH (MB)   RECORD NAMES
              1      20        2.92       500      610      700      900      950      970     1000      129      960     1100   
                                          VAR    BASINP    GEOM    SYMINP    ZMAT    AOBASIS   BASIS     P2S    ABASIS      S 
                                         1400     1410     1200     1210     1080     1600     1650     1300     1700     1800   
                                           T        V       H0       H01     AOSYM     SMH    MOLCAS    ERIS     OPER     GRID   

              2       4        0.30       700     1000     1800     2100   
                                         GEOM     BASIS    GRID      RKS  

 PROGRAMS   *        TOTAL        KS       INT
 CPU TIMES  *         2.38      1.73      0.14
 REAL TIME  *         3.41 SEC
 DISK USED  *         7.60 MB      
 **********************************************************************************************************************************


 PROGRAM * OPT (Geometry optimization)     Authors: F. Eckert and H.-J. Werner


 BFGS update of hessian

 *** Long output written to logfile /home/ospite/Desktop/MMfP/Project6/CH4/molpro/DFT/ch4_+.log ***


 Geometry optimization using default procedure for command KS-SCF

 Geometry written to block  1 of record 700

 Making model hessian for Z-matrix coordinates

 Quadratic Steepest Descent - Minimum Search

 Optimization point 1

 Variable                      Last           Current        Next           Gradient       Hessian

 E(KS-SCF000) / Hartree      0.00000000   -40.47695440     0.00000000
 D / ANG                     0.00000000     1.09000000     1.09302855    -0.02081347     6.87242182
 A / DEG                     0.00000000   109.47000000   109.46847621     0.00000035     0.00023257
 T / DEG                     0.00000000   120.00000000   120.01171764    -0.00000176     0.00014996
 Convergence:                0.00000000  (line search)     0.00572684     0.01101449  (total)

 Freezing grid

 Optimization point 2

 Variable                      Last           Current        Next           Gradient       Hessian

 E(KS-SCF000) / Hartree    -40.47695440   -40.47700569     0.00000000
 D / ANG                     1.09000000     1.09302855     1.09409675    -0.00536872     5.09372987
 A / DEG                   109.47000000   109.46847621   109.46194766     0.00000111     0.00022871
 T / DEG                   120.00000000   120.01171764   119.96779612     0.00000481     0.00014829
 Convergence:                0.00000000  (line search)     0.00216227     0.00285505  (total)

 Optimization point 3

 Variable                      Last           Current        Next           Gradient       Hessian

 E(KS-SCF000) / Hartree    -40.47700569   -40.47697556     0.00000000
 D / ANG                     1.09302855     1.09409675     1.09411832    -0.00007612     4.98629124
 A / DEG                   109.46847621   109.46194766   109.47596524    -0.00000318     0.00023024
 T / DEG                   120.01171764   119.96779612   119.97077294    -0.00000051     0.00014834
 Convergence:                0.00000000  (line search)     0.00025341     0.00018905  (total)

 END OF GEOMETRY OPTIMIZATION.    TOTAL CPU:         8.3 SEC

 ITER.   ENERGY(OLD)    ENERGY(NEW)      DE          GRADMAX     GRADNORM    GRADRMS     STEPMAX     STEPLEN     STEPRMS
   1   -40.47695440   -40.47700569    -0.00005129  0.01101402  0.01101449  0.00367150  0.00572313  0.00572684  0.00190895
   2   -40.47700569   -40.47697556     0.00003013  0.00284101  0.00285505  0.00095168  0.00201861  0.00216227  0.00072076
   3   -40.47697556   -40.47700800    -0.00003244  0.00018238  0.00018905  0.00006302  0.00024465  0.00025341  0.00008447

 Geometry written to block  1 of record 700


 **********************************************************************************************************************************
 DATASETS  * FILE   NREC   LENGTH (MB)   RECORD NAMES
              1      20        2.92       500      610      700      900      950      970     1000      129      960     1100   
                                          VAR    BASINP    GEOM    SYMINP    ZMAT    AOBASIS   BASIS     P2S    ABASIS      S 
                                         1400     1410     1200     1210     1080     1600     1650     1300     1700     1800   
                                           T        V       H0       H01     AOSYM     SMH    MOLCAS    ERIS     OPER     GRID   

              2       4        0.30       700     1000     1800     2100   
                                         GEOM     BASIS    GRID      RKS  

 PROGRAMS   *        TOTAL      OPTG        KS       INT
 CPU TIMES  *        10.68      8.29      1.73      0.14
 REAL TIME  *        15.48 SEC
 DISK USED  *         7.64 MB      
 **********************************************************************************************************************************


 PROGRAM * HESSIAN

 Computing numerical hessian using default procedure for command KS-SCF

 Symmetry elements for unique displacements: Y  

 Using no symmetry in wavefunction calculations

 Running default procedure: KS-SCF000


 Recomputing wavefunction at reference geometry

 Numerically approximating hessian using central gradient differences

 Task list generated. Total number of displacements:     21

    5 tasks completed, CPU=    22.84 sec, Elapsed=    35.59 sec
   10 tasks completed, CPU=    45.07 sec, Elapsed=    67.50 sec
   15 tasks completed, CPU=    67.99 sec, Elapsed=   103.74 sec
   20 tasks completed, CPU=    89.28 sec, Elapsed=   128.61 sec

 Numerical KS-SCF000 hessian completed. CPU-time:    93.48 sec, Elapsed:   133.62 sec

 KS-SCF hessian saved to record  5300.2

 FREQUENCIES * CALCULATION OF HARMONIC VIBRATIONAL SPECTRA FOR KS-SCF


 Permanent Dipole Moment [debye]
   1-  3    0.001076    0.000000    0.000780

 Dipole Moment Norm    0.0013289 [debye]

 Dipole Moment Derivatives [debye/ang]
                   1             2             3             4             5             6             7             8
         1    -0.3144287     0.0000000    -0.0005950     0.4254782     0.0000000    -0.3065328    -0.3809792     0.0000000
         2    -0.0000000    -0.3072287     0.0000000     0.0000000     0.5036073     0.0000000    -0.0000000     0.5044525
         3    -0.0009153     0.0000000    -0.3173978    -0.3076113     0.0000000    -0.6954183     0.5938365     0.0000000
                   9            10            11            12            13            14            15
         1     0.5928270     0.1349562    -0.5646781    -0.1428510     0.1349562     0.5646781    -0.1428510
         2     0.0000000    -0.5603148    -0.3504264    -0.2152293     0.5603148    -0.3504264     0.2152293
         3     0.1136759    -0.1426520    -0.2162404     0.4495572    -0.1426520     0.2162404     0.4495572

 Projecting out rotations and translations

   Low Vibration      Wavenumber
        Nr             [1/cm] 
        1                0.00
        2                0.00
        3                0.00
        4                0.00
        5                0.00
        6                0.00

     Vibration        Wavenumber
        Nr             [1/cm] 
        1             1395.73
        2             1395.74
        3             1396.70
        4             1590.95
        5             1591.98
        6             3035.51
        7             3152.92
        8             3153.30
        9             3153.35

 FREQUENCIES * CALCULATION OF NORMAL MODES FOR KS-SCF


 Atomic Coordinates

  Nr  Atom  Charge       X              Y              Z

   1   C     6.00   -0.000097360    0.000000000    0.000056203
   2   H1    1.00    0.510388258    0.000000000    2.003629996
   3   H2    1.00    1.718633089    0.000000000   -1.149234514
   4   H3    1.00   -1.113930584   -1.688622770   -0.427532612
   5   H4    1.00   -1.113930584    1.688622770   -0.427532612

 Frequencies dumped to record   5400.2

 Gradient norm at reference geometry: 0.76190D-04

 Normal Modes

                              1 A``       2 A`        3 A`        4 A`        5 A``
 Wavenumbers [cm-1]         1395.73     1395.74     1396.70     1590.95     1591.98
 Intensities [km/mol]         31.21       31.68       31.63        0.00        0.00
 Intensities [relative]       98.54      100.00       99.84        0.00        0.00
           CX1              0.00000    -0.10058     0.05767    -0.00017    -0.00000
           CY1             -0.11591    -0.00000     0.00000     0.00000    -0.00030
           CZ1              0.00000    -0.05765    -0.10056     0.00001     0.00000
           H1X2            -0.00000     0.37314    -0.38808     0.48327    -0.00000
           H1Y2             0.55737     0.00000    -0.00000    -0.00000    -0.49658
           H1Z2             0.00000    -0.14974     0.04261    -0.12322     0.00000
           H2X3            -0.00000     0.24833     0.19410     0.27711    -0.00000
           H2Y3             0.55463     0.00000    -0.00000     0.00000     0.49959
           H2Z3            -0.00000     0.43207     0.16797     0.41451    -0.00000
           H3X4            -0.27773     0.28853    -0.24664    -0.37919    -0.17900
           H3Y4             0.13459    -0.29462     0.04592     0.28702     0.00028
           H3Z4            -0.10784     0.20232     0.49386    -0.14568     0.46468
           H4X5             0.27773     0.28853    -0.24664    -0.37919     0.17900
           H4Y5             0.13459     0.29462    -0.04592    -0.28702     0.00028
           H4Z5             0.10784     0.20232     0.49386    -0.14568    -0.46468

                              6 A`        7 A`        8 A`        9 A``
 Wavenumbers [cm-1]         3035.51     3152.92     3153.30     3153.35
 Intensities [km/mol]          0.00       31.04       30.83       30.93
 Intensities [relative]        0.00       98.00       97.34       97.64
           CX1              0.00010    -0.08649     0.00115     0.00000
           CY1             -0.00000    -0.00000    -0.00000    -0.08654
           CZ1              0.00003    -0.00116    -0.08653     0.00000
           H1X2             0.12289     0.03000     0.20227    -0.00000
           H1Y2            -0.00000    -0.00000    -0.00000    -0.02444
           H1Z2             0.48219     0.21349     0.76786    -0.00000
           H2X3             0.41330     0.55595    -0.39848     0.00000
           H2Y3            -0.00000    -0.00000    -0.00000    -0.02451
           H2Z3            -0.27628    -0.38845     0.24232    -0.00000
           H3X4            -0.26868     0.22233     0.09127     0.37242
           H3Y4            -0.40727     0.37405     0.13780     0.54010
           H3Z4            -0.10310     0.09441     0.01045     0.14292
           H4X5            -0.26868     0.22233     0.09127    -0.37242
           H4Y5             0.40727    -0.37405    -0.13780     0.54010
           H4Z5            -0.10310     0.09441     0.01045    -0.14292


 Normal Modes of low/zero frequencies

                                  1           2           3           4           5
 Wavenumbers [cm-1]            0.00        0.00        0.00        0.00        0.00
 Intensities [km/mol]          0.00        0.00        0.00        0.00        0.00
 Intensities [relative]        0.00        0.00        0.00        0.00        0.00
           CX1              0.14605     0.01942     0.01261     0.00074     0.14137
           CY1             -0.10708     0.01750     0.02292     0.05141    -0.09324
           CZ1             -0.03415     0.03895     0.10285     0.20253     0.07280
           H1X2            -0.23285     0.03244    -0.20842    -0.08583     0.52713
           H1Y2            -0.21512     0.29068     0.44995    -0.26351    -0.03322
           H1Z2             0.06238     0.03564     0.15917     0.22459    -0.02548
           H2X3             0.36339     0.01196     0.13939     0.05040    -0.07990
           H2Y3            -0.00565     0.42894    -0.36955     0.21778    -0.19339
           H2Z3             0.29088     0.02779     0.29246     0.27680    -0.25811
           H3X4             0.26002     0.49359    -0.06406     0.00723     0.00388
           H3Y4            -0.10372    -0.32463     0.00548     0.12576    -0.07321
           H3Z4            -0.34429     0.15492     0.37143    -0.10796     0.35190
           H4X5             0.19380    -0.46029     0.18361     0.03121     0.11422
           H4Y5            -0.10372    -0.32463     0.00548     0.12576    -0.07321
           H4Z5            -0.14529    -0.06253    -0.41148     0.41676     0.22262

                                  6
 Wavenumbers [cm-1]            0.00
 Intensities [km/mol]          0.00
 Intensities [relative]        0.00
           CX1              0.14311
           CY1              0.19672
           CZ1             -0.05246
           H1X2             0.16692
           H1Y2             0.17464
           H1Z2            -0.05853
           H2X3             0.12945
           H2Y3             0.17001
           H2Z3            -0.07289
           H3X4             0.10497
           H3Y4             0.22111
           H3Z4            -0.04942
           H4X5             0.17108
           H4Y5             0.22111
           H4Z5            -0.02904


 Zero point energy:  0.04525848 [H]     9933.09 [1/CM]      118.83 [KJ/MOL]
 Frequency information read from record  5400.2

 Dump information in style MOLDEN to ch4_6-31+g.molpro                                                               

 Molecular orbitals read from record     2101.2  Type=RKS/CANONICAL (state 1.1)
 Occupation numbers read from record     2101.2  Type=RKS/RHF (state 1.1)
 Orbital energies read from record       2101.2  Type=RKS/CANONICAL (state 1.1)
 Redundancy group numbers read from rec  2101.2  Type=RKS/RHF (state 1.1)

 DUMP ORBITAL  1.1 AS ORBITAL    1  occ=    2.0000  eig=  -10.1622  GROUP=   2
 DUMP ORBITAL  2.1 AS ORBITAL    2  occ=    2.0000  eig=   -0.6950  GROUP=   2
 DUMP ORBITAL  3.1 AS ORBITAL    3  occ=    2.0000  eig=   -0.3921  GROUP=   2
 DUMP ORBITAL  4.1 AS ORBITAL    4  occ=    2.0000  eig=   -0.3921  GROUP=   2
 DUMP ORBITAL  5.1 AS ORBITAL    5  occ=    2.0000  eig=   -0.3919  GROUP=   2

 Total charge:      10.000000
 Frequency information read from record  5400.2

 **********************************************************************************************************************************

        KS-SCF          KS-SCF          KS-SCF          KS-SCF          KS-SCF          KS-SCF          KS-SCF          KS-SCF  
    -40.47702016    -40.47701710    -40.47701717    -40.47700743    -40.47700818    -40.47701347    -40.47701341    -40.47701278
 **********************************************************************************************************************************
 Variable memory released
