[Molden Format]
[Molpro variables]
_NUMVAR=  693.0000000000000    
_EV2006= 0.3674930886769165E-01
_EV= 0.3674932534394180E-01
_KJOULE= 0.3808798324128737E-03
_KJOULE/MOL= 0.3808798324128737E-03
_CM= 0.4556335267302901E-05
_CM-1= 0.4556335267302901E-05
_KCAL= 0.1593601117815568E-02
_KCAL/MOL= 0.1593601117815568E-02
_KELVIN2006= 0.3166828861084835E-05
_KELVIN= 0.3166814820820034E-05
_HERTZ2006= 0.1519829850815779E-15
_HERTZ= 0.1519829846011223E-15
_HZ2006= 0.1519829850815779E-15
_HZ= 0.1519829846011223E-15
_TOA2006= 0.5291772490000000    
_TOA= 0.5291772090000000    
_TOANG2006= 0.5291772490000000    
_TOANG= 0.5291772090000000    
_TORAD= 0.1745329251994330E-01
_TOCM=  219474.6306700000    
_TODEBYE=  2.541580000000000    
_TOEV2006=  27.21139610000000    
_TOEV=  27.21138390000000    
_TOHERTZ2006=  6579683899900000.    
_TOHERTZ=  6579683920700000.    
_TOHZ2006=  6579683899900000.    
_TOHZ=  6579683920700000.    
_TOK2006=  315773.3000000000    
_TOK=  315774.7000000000    
_TOKCAL=  627.5096000000000    
_TOKELVIN2006=  315773.3000000000    
_TOKELVIN=  315774.7000000000    
_TOKJ=  2625.500000000000    
_TOKJOULE=  2625.500000000000    
_ANG2006=  1.889725988578923    
_ANG=  1.889726131421507    
_ANGSTROM2006=  1.889725988578923    
_ANGSTROM=  1.889726131421507    
_IGNORE_UNDEF=  2.000000000000000    
_STRICTCHECK=  0.000000000000000    
_SEW_ONEEL=  0.000000000000000    
_CPPDONE=FALSE
_DKROLL_DONE=  0.000000000000000    
_FOCKDONE=TRUE
_GRADONE=FALSE
_HESSDONE=TRUE
_INTDONE=TRUE
_SCFDONE=TRUE
_MODUL_CUDA=FALSE
_MODUL_SLATER=FALSE
_MODUL_MRCC=FALSE
_MRCC_EXEC=
_FITC_AO_SAVED=FALSE
_FITC_MO_SAVED=FALSE
_SHARED_FS=TRUE
_LSTYP=SEWARD
_INTYP=INTS
_GEOMTYP=ZMAT
_GRADTYP=ALASKA
_DIRECT=FALSE
_SYNCM=  0.000000000000000    
_DFTNAME=B3LYP
_DFTFUNC=B88
_BASIS=AUG-CC-PVDZ
_ZSYMEL=
_ZORIENT=  1.000000000000000    
_NELEC=  10.00000000000000    
!SPIN=  0.000000000000000    
_OPTCONV= 0.1594980209805482E-03
_QSDSTEP=  0.000000000000000    
_QSDIRC=  0.000000000000000    
_PROGRAM=FREQ
_CPUSTEP=  0.000000000000000    
_SYSSTEP=  0.000000000000000    
_WALLSTEP=  0.000000000000000    
!DFSCF=  0.000000000000000    
!SCSGRD=  0.000000000000000    
_BASINP=  610.0000000000000    
_CPUTOT=  251.1300000000000    
_CPUSORT= 0.4300000000000068    
_SYSSORT= 0.3999999999999915E-01
_WALLSORT= 0.5099999997764826    
_DFTEXFAC= 0.2000000000000000    
_DFTFAC= 0.7200000000000000    
_DFTFUN= -5.542424607916169    
_DFTFUNS= -6.558185116034039    
_DMX=-0.2114618543057160E-03
_DMY= 0.1541778857361287E-13
_DMZ= 0.6267603686768816E-03
_FREQUENCIES= 0.5914893965863590E-04
_ENERGY= -40.48466413707320    
_ENUC=  13.34762993963809    
_FREQSTEP=  22.00000000000000    
_GRADENERG= -40.48466115336872    
_GRADEXFAC= 0.2000000000000000    
_GRADMETHOD=  1.000000000000000    
_VIRIAL= 0.1901907002918334E-02
_GRID=  1800.200000000000    
!GRID_FREEZE= -1.000000000000000    
_GRID_SPARSITY=  0.000000000000000    
_GRID_RMAX=  6.827782910736818    
_ITERATIONS=  5.000000000000000    
_LASTNELEC=  10.00000000000000    
_LASTSPIN=  0.000000000000000    
_LASTSYM=  1.000000000000000    
_MPP_PROG=  0.000000000000000    
_NGRID=  13180.00000000000    
_NPROC_MPP=  1.000000000000000    
_NPROC_SMP=  1.000000000000000    
_NUMSTEP=  0.000000000000000    
_OPTCONVMX= 0.1420543981529891E-03
_OPTCONVRMS= 0.5316600699351606E-04
_OPTGRAD= 0.1555532861188445E-03
_OPTGRADMX= 0.1088806849890387E-03
_OPTGRADRMS= 0.5185109537294817E-04
_OPTSTEP=  4.000000000000000    
_ORBITAL=  2101.200000000000    
_PI=  3.141592653589793    
_SEIG_MIN= 0.8522676031917115E-03
_SEWPROP=TRUE
_STATUS=  1.000000000000000    
_SYSTOT=  9.160000000000000    
_VERSION=  2010001.000000000    
_WALLTOT=  265.0300000000000    
_ZPE= 0.4418444946338657E-01
_DATE=17-Aug-24
_LASTORB=RKS
_MACHINE=Linux-3.10.0-1160.108.1.el7.x86_64/molmod(x86_64) 64 bit serial version
_OUTPUT=/home/ospite/Desktop/MMfP/Project6/CH4/molpro/DFT/ch4_aug-ccpVDZ.xml
_PGROUP=C1
_TIME=17:07:22
_LIBMOL=/usr/local/molpro/molpros_2010_1_Linux_x86_64_i8/lib/
!SURFREC=  0.000000000000000    
!POLYREC=  0.000000000000000    
!DIPREC=  0.000000000000000    
!VSCFREC=  0.000000000000000    
!VCIREC=  0.000000000000000    
!PVCIREC=  0.000000000000000    
!VMP2REC=  0.000000000000000    
!VMCSCFREC=  0.000000000000000    
!GAREC=  0.000000000000000    
!SCFORB=  21002.00000000000    
!NEWMOL=  0.000000000000000    
!NEWSYM=  0.000000000000000    
_SLFILES=slscratch
_NGSSTO=  9.000000000000000    
_SIN=SIN
_COS=COS
_TAN=TAN
_ACOS=ACOS
_ASIN=ASIN
_ATAN=ATAN
_COSH=COSH
_SINH=SINH
_TANH=TANH
_ABS=ABS
_MOD=MOD
_ERF=ERF
_REFC=REFC
_ERFC=ERFC
_HYPOT=HYPOT
_J0=J0
_J1=J1
_JN=JN
_GAMMA=GAMMA
_LGAMMA=LGAMMA
_Y0=Y0
_Y1=Y1
_YN=YN
_EXP=EXP
_LOG=LOG
_LOG10=LOG10
_SQRT=SQRT
_INT=INT
_NINT=NINT
_MAX=MAX
_MIN=MIN
_COSMO=  0.000000000000000    
_COSMOIT=  0.000000000000000    
_COSMOES=  0.000000000000000    
_COSMOEDS=  0.000000000000000    
_COSMOEC=  0.000000000000000    
_COSMOEDCORR=  0.000000000000000    
_FEPSI=  1.000000000000000    
_SL_IsMM=  0.000000000000000    
_SL_NSYM=  0.000000000000000    
_SL_System_BitSw=  0.000000000000000    
_SL_Unique_atoms=  0.000000000000000    
_SL_GRAD=  0.000000000000000    
_SL_MAXUPD_Hess=  5.000000000000000    
_SL_N_PRINT_COD=  5.000000000000000    
_SL_PRINT_CODES=  0.000000000000000    
_SL_BasType=  0.000000000000000    
_SL_Energy_Pred=  0.000000000000000    
_SL_New_Coords=  0.000000000000000    
_SL_Total_Nuclea=  0.000000000000000    
_SL_Highest_Mltp=  0.000000000000000    
_SL_Ref_Geom=  0.000000000000000    
!LATTICE= -1.000000000000000    
!NEWLATTICE=  0.000000000000000    
!LATGRAD_VAR=FALSE
!SEW_LATTICE=  1.000000000000000    
!LOCAL=  0.000000000000000    
!SAVEOCC=  0.000000000000000    
!SAVEDOM= -1.000000000000000    
!RESTDOM= -1.000000000000000    
!SAVEDOM_HF= -1.000000000000000    
!RESTDOM_HF= -1.000000000000000    
!HESSREC=  5300.200000000000    
!FREQREC=  5400.200000000000    
!NMODREC=  5450.200000000000    
!GTASKS=  0.000000000000000    
!HTASKS=  5500.200000000000    
!THRCHG= 0.1000000000000000    
!DEBUG= -1.000000000000000    
!CFIT_CPHF=  0.000000000000000    
!RDOMAUX_CPHF=  5.000000000000000    
!THRAO_CPHF= 0.9999999999999999E-11
!THRMO_CPHF= 0.9999999999999999E-11
!THROV_CPHF= 0.1000000000000000E-11
!THRSW_CPHF= 0.1000000000000000E-09
!THRPROD_CPHF= 0.9999999999999999E-11
!THRAOPR_CPHF= 0.1000000000000000E-11
!CFIT_SCFGRD=  0.000000000000000    
!RDOMAUX_SCFGRD=  7.000000000000000    
!THRAO_SCFGRD= 0.9999999999999999E-11
!THRMO_SCFGRD= 0.9999999999999999E-11
!THROV_SCFGRD= 0.1000000000000000E-11
!THRSW_SCFGRD= 0.1000000000000000E-09
!THRPROD_SCFGRD= 0.9999999999999999E-11
!THRAOPR_SCFGRD= 0.1000000000000000E-11
!LOCFIT_SCF=  0.000000000000000    
!LOCFIT_MP2= -1.000000000000000    
_RIDOM=  0.000000000000000    
!CC2_METHOD=  0.000000000000000    
_BASIS2006=FALSE
_SVDDEL= -1.000000000000000    
_SVDDELA= -1.000000000000000    
_SVDDELP= -1.000000000000000    
_SVDDELF= -1.000000000000000    
_SVDDELS= -1.000000000000000    
_SVDDEL_ABS= -1.000000000000000    
_SVDDELA_ABS= -1.000000000000000    
_SVDDELP_ABS= -1.000000000000000    
_SVDDELF_ABS= -1.000000000000000    
_SVDDELS_ABS= -1.000000000000000    
_MAXBASIS=  0.000000000000000    
!OPT_CONICAL=  0.000000000000000    
!CLEARSP_JGRID=  0.000000000000000    
D=  1.097166648154081    
A=  109.4507079030092    
T=  120.0217388239279    
GX1= 0.6342594817085872E-04
GY1= -0.000000000000000    
GZ1=-0.1410441903499318E-03
GX2= 0.2615991105898175    
GY2= -0.000000000000000    
GZ2=  2.056641987969809    
GX3=  1.852372116478347    
GY3= -0.000000000000000    
GZ3=-0.9316505023867203    
GX4= -1.057363517508267    
GY4= -1.692721853084398    
GZ4=-0.5616553744311787    
GX5= -1.057363517508267    
GY5=  1.692721853084398    
GZ5=-0.5616553744311787    
CX1= 0.6342594817085843E-04
CY1=  0.000000000000000    
CZ1=-0.1410441903499319E-03
H1X2= 0.2615991105898175    
H1Y2=  0.000000000000000    
H1Z2=  2.056641987969809    
H2X3=  1.852372116478347    
H2Y3=  0.000000000000000    
H2Z3=-0.9316505023867203    
H3X4= -1.057363517508267    
H3Y4= -1.692721853084398    
H3Z4=-0.5616553744311787    
H4X5= -1.057363517508267    
H4Y5=  1.692721853084398    
H4Z5=-0.5616553744311787    
[Atoms] Angs
C     1    6         0.0000335636       -0.0000000000       -0.0000746374
H     2    1         0.1384322872       -0.0000000000        1.0883280671
H     3    1         0.9802331066       -0.0000000000       -0.4930082126
H     4    1        -0.5595326751       -0.8957498258       -0.2972152235
H     5    1        -0.5595326751        0.8957498258       -0.2972152235
[GTO]
  1 0
 s    9  1.00
  0.6665000000D+04  0.6920001793D-03
  0.1000000000D+04  0.5329001381D-02
  0.2280000000D+03  0.2707700701D-01
  0.6471000000D+02  0.1017180264D+00
  0.2106000000D+02  0.2747400712D+00
  0.7495000000D+01  0.4485641162D+00
  0.2797000000D+01  0.2850740738D+00
  0.5215000000D+00  0.1520400394D-01
  0.1596000000D+00 -0.3191000827D-02
 s    9  1.00
  0.6665000000D+04 -0.1460000642D-03
  0.1000000000D+04 -0.1154000508D-02
  0.2280000000D+03 -0.5725002519D-02
  0.6471000000D+02 -0.2331201026D-01
  0.2106000000D+02 -0.6395502813D-01
  0.7495000000D+01 -0.1499810660D+00
  0.2797000000D+01 -0.1272620560D+00
  0.5215000000D+00  0.5445292395D+00
  0.1596000000D+00  0.5804962554D+00
 s    9  1.00
  0.6665000000D+04  0.0000000000D+00
  0.1000000000D+04  0.0000000000D+00
  0.2280000000D+03  0.0000000000D+00
  0.6471000000D+02  0.0000000000D+00
  0.2106000000D+02  0.0000000000D+00
  0.7495000000D+01  0.0000000000D+00
  0.2797000000D+01  0.0000000000D+00
  0.5215000000D+00  0.0000000000D+00
  0.1596000000D+00  0.1000000000D+01
 s    1  1.00
  0.4690000000D-01  0.1000000000D+01
 p    4  1.00
  0.9439000000D+01  0.3810902127D-01
  0.2002000000D+01  0.2094801169D+00
  0.5456000000D+00  0.5085572839D+00
  0.1517000000D+00  0.4688422617D+00
 p    4  1.00
  0.9439000000D+01  0.0000000000D+00
  0.2002000000D+01  0.0000000000D+00
  0.5456000000D+00  0.0000000000D+00
  0.1517000000D+00  0.1000000000D+01
 p    1  1.00
  0.4041000000D-01  0.1000000000D+01
 d    1  1.00
  0.5500000000D+00  0.1000000000D+01
 d    1  1.00
  0.1510000000D+00  0.1000000000D+01
  
  2 0
 s    4  1.00
  0.1301000000D+02  0.1968498999D-01
  0.1962000000D+01  0.1379769298D+00
  0.4446000000D+00  0.4781477569D+00
  0.1220000000D+00  0.5012397451D+00
 s    4  1.00
  0.1301000000D+02  0.0000000000D+00
  0.1962000000D+01  0.0000000000D+00
  0.4446000000D+00  0.0000000000D+00
  0.1220000000D+00  0.1000000000D+01
 s    1  1.00
  0.2974000000D-01  0.1000000000D+01
 p    1  1.00
  0.7270000000D+00  0.1000000000D+01
 p    1  1.00
  0.1410000000D+00  0.1000000000D+01
  
  3 0
 s    4  1.00
  0.1301000000D+02  0.1968498999D-01
  0.1962000000D+01  0.1379769298D+00
  0.4446000000D+00  0.4781477569D+00
  0.1220000000D+00  0.5012397451D+00
 s    4  1.00
  0.1301000000D+02  0.0000000000D+00
  0.1962000000D+01  0.0000000000D+00
  0.4446000000D+00  0.0000000000D+00
  0.1220000000D+00  0.1000000000D+01
 s    1  1.00
  0.2974000000D-01  0.1000000000D+01
 p    1  1.00
  0.7270000000D+00  0.1000000000D+01
 p    1  1.00
  0.1410000000D+00  0.1000000000D+01
  
  4 0
 s    4  1.00
  0.1301000000D+02  0.1968498999D-01
  0.1962000000D+01  0.1379769298D+00
  0.4446000000D+00  0.4781477569D+00
  0.1220000000D+00  0.5012397451D+00
 s    4  1.00
  0.1301000000D+02  0.0000000000D+00
  0.1962000000D+01  0.0000000000D+00
  0.4446000000D+00  0.0000000000D+00
  0.1220000000D+00  0.1000000000D+01
 s    1  1.00
  0.2974000000D-01  0.1000000000D+01
 p    1  1.00
  0.7270000000D+00  0.1000000000D+01
 p    1  1.00
  0.1410000000D+00  0.1000000000D+01
  
  5 0
 s    4  1.00
  0.1301000000D+02  0.1968498999D-01
  0.1962000000D+01  0.1379769298D+00
  0.4446000000D+00  0.4781477569D+00
  0.1220000000D+00  0.5012397451D+00
 s    4  1.00
  0.1301000000D+02  0.0000000000D+00
  0.1962000000D+01  0.0000000000D+00
  0.4446000000D+00  0.0000000000D+00
  0.1220000000D+00  0.1000000000D+01
 s    1  1.00
  0.2974000000D-01  0.1000000000D+01
 p    1  1.00
  0.7270000000D+00  0.1000000000D+01
 p    1  1.00
  0.1410000000D+00  0.1000000000D+01


[MO]
 Sym=      1.1
 Ene=     -10.1695
 Spin= Alpha
 Occup=    2.000000
1 1.00895057511199
2 0.044353470136349
3 -0.085040872561665
4 -0.018451042174636
5 -0.000000245740312
6 0.000000000000013
7 0.000000587948723
8 -0.000000139199914
9 -0.000000000000142
10 0.000000048471455
11 0.000000908678529
12 -0.000000000000023
13 -0.000000255660134
14 0.000002220794375
15 -0.000000320565573
16 -0.000001900228802
17 0.000000000000002
18 -0.000000335858576
19 0.000000000000000
20 -0.000003555762350
21 0.000000605410371
22 0.000002950351978
23 0.000000000000030
24 0.000000999088585
25 0.000000000000018
26 -0.000933898786796
27 0.016126872998822
28 0.001793804284065
29 0.000215365043316
30 0.000000000000002
31 0.001695169894786
32 -0.000651839026516
33 -0.000000000000011
34 -0.005125363655660
35 -0.000936474083265
36 0.016151536805397
37 0.001793241557849
38 0.001527911665152
39 0.000000000000002
40 -0.000768462589706
41 -0.004622393416826
42 -0.000000000000010
43 0.002324006029201
44 -0.000935520680429
45 0.016139729391676
46 0.001794155664828
47 -0.000871605197461
48 -0.001395810054151
49 -0.000463502984521
50 0.002636604910723
51 0.004220963508848
52 0.001400086867549
53 -0.000935520680408
54 0.016139729392100
55 0.001794155664868
56 -0.000871605197462
57 0.001395810054155
58 -0.000463502984521
59 0.002636604910793
60 -0.004220963508983
61 0.001400086867584
 Sym=      2.1
 Ene=      -0.6920
 Spin= Alpha
 Occup=    2.000000
1 -0.020462874223215
2 0.77984139418672
3 -0.33635360289884
4 0.030900277136465
5 -0.000037693467448
6 0.000000000000198
7 0.000110885705804
8 -0.000372525841314
9 -0.000000000001261
10 0.000118866355777
11 -0.000087581735712
12 -0.000000000000227
13 -0.000146783919227
14 -0.000008997855942
15 0.000002215701781
16 0.000006782154161
17 -0.000000000000039
18 0.000002338051028
19 0.000000000000009
20 -0.000053298020831
21 0.000041201085656
22 0.000012096935175
23 0.000000000000309
24 0.000093258634409
25 0.000000000000123
26 0.31671028404397
27 -0.11565152019013
28 -0.001893803020877
29 -0.003052762196193
30 0.000000000000016
31 -0.024055892177985
32 -0.002305159584656
33 -0.000000000000141
34 -0.017346843253765
35 0.31664205432104
36 -0.11428764467608
37 -0.001911254498065
38 -0.021665648618245
39 0.000000000000019
40 0.010893662794109
41 -0.016134289379363
42 -0.000000000000171
43 0.008206831760006
44 0.31665191406175
45 -0.11553663342120
46 -0.002001843727214
47 0.012362807459803
48 0.019795619570745
49 0.006569647157995
50 0.008992188319887
51 0.014394924395026
52 0.004831945152620
53 0.31665191406217
54 -0.11553663341683
55 -0.002001843726857
56 0.012362807459723
57 -0.019795619570858
58 0.006569647158028
59 0.008992188320595
60 -0.014394924396522
61 0.004831945153038
 Sym=      3.1
 Ene=      -0.3901
 Spin= Alpha
 Occup=    2.000000
1 0.000022245172607
2 0.000144363248785
3 -0.000466050946741
4 0.000490654001948
5 0.66879328188137
6 -0.000000000386153
7 0.004684959688176
8 -0.33415831201292
9 0.000000000190773
10 -0.002276239078219
11 -0.032249959879326
12 0.000000000018145
13 -0.000438276052473
14 0.009976567096539
15 -0.015234246701696
16 0.005257679605157
17 0.000000000010219
18 -0.012436775268042
19 0.000000000005410
20 -0.030803286970359
21 0.046857217148535
22 -0.016053930178176
23 -0.000000000030697
24 0.038365178137613
25 -0.000000000016493
26 0.091964432669269
27 0.019092353500113
28 0.007788418466527
29 0.014859567398467
30 -0.000000000008850
31 -0.003721963316246
32 0.000166520302987
33 -0.000000000001068
34 -0.013285982653364
35 0.61486801864637
36 0.13152912694974
37 0.050525176255000
38 -0.007713677108779
39 -0.000000000008846
40 0.011690192093071
41 -0.078965857280826
42 -0.000000000001313
43 0.040974386976094
44 -0.35341795179109
45 -0.075282013805146
46 -0.029291809581856
47 0.007771760435195
48 -0.012108844609822
49 -0.003907042854309
50 -0.024526527183976
51 -0.042450110344283
52 -0.013927329414228
53 -0.35341795244272
54 -0.075282013938352
55 -0.029291809634750
56 0.007771760421394
57 0.012108844614614
58 -0.003907042861767
59 -0.024526527231966
60 0.042450110418714
61 -0.013927329439458
 Sym=      4.1
 Ene=      -0.3900
 Spin= Alpha
 Occup=    2.000000
1 -0.000000000000116
2 -0.000000000000564
3 0.000000000002125
4 0.000000000002147
5 0.000000000387946
6 0.66883016865796
7 -0.000000000189151
8 -0.000000000195876
9 -0.33334302568999
10 0.000000000093188
11 -0.000000000018986
12 -0.031988406900786
13 0.000000000008642
14 0.000000000009015
15 -0.000000000006571
16 -0.000000000002444
17 -0.017543835752923
18 -0.000000000008892
19 -0.009332738317141
20 -0.000000000027371
21 0.000000000020472
22 0.000000000006899
23 0.053760887163079
24 0.000000000027634
25 0.028936439211235
26 -0.000000000143303
27 -0.000000000028694
28 -0.000000000011343
29 0.000000000009665
30 0.015341168323483
31 0.000000000001636
32 0.000000000003694
33 0.001753429073952
34 0.000000000019557
35 0.000000000445583
36 0.000000000096357
37 0.000000000036382
38 -0.000000000007761
39 0.015329227381172
40 0.000000000004026
41 -0.000000000057948
42 0.002224619539478
43 0.000000000029130
44 -0.56399861757123
45 -0.11942804802012
46 -0.046220838228996
47 -0.012062586343348
48 -0.003978014605256
49 -0.006411689837198
50 -0.042280474225119
51 -0.065515134074878
52 -0.022180757254634
53 0.56399861726832
54 0.11942804794955
55 0.046220838203010
56 0.012062586354629
57 -0.003978014594927
58 0.006411689825110
59 0.042280474203715
60 -0.065515134037045
61 0.022180757240912
 Sym=      5.1
 Ene=      -0.3899
 Spin= Alpha
 Occup=    2.000000
1 0.000008078182698
2 -0.000141937358471
3 -0.000208481999375
4 -0.001115475523974
5 -0.004652570115188
6 0.000000000192029
7 0.66885137485504
8 0.001901789870940
9 -0.000000000096844
10 -0.33340829839876
11 -0.000297482468815
12 -0.000000000009708
13 -0.032462900244774
14 -0.010890256351395
15 -0.007980373322241
16 0.018870629673636
17 -0.000000000004999
18 0.005990806890831
19 -0.000000000002655
20 0.033426004176061
21 0.024559628050305
22 -0.057985632226366
23 0.000000000015687
24 -0.018142509223052
25 0.000000000008378
26 0.68460958153227
27 0.14525116723292
28 0.056680166567508
29 -0.003717962290277
30 0.000000000004413
31 -0.013182451086311
32 -0.013065059276090
33 0.000000000000508
34 -0.097247142680024
35 -0.31490251203811
36 -0.065017368817637
37 -0.025357727342254
38 0.011675278095617
39 0.000000000004398
40 0.009386994254344
41 0.040934612614494
42 0.000000000000600
43 -0.018422143171392
44 -0.18484876279510
45 -0.039401535389691
46 -0.015621385671413
47 -0.004044431073323
48 -0.006324893170473
49 0.013246282758621
50 -0.013922808412131
51 -0.022300832372583
52 -0.005225906795403
53 -0.18484876247130
54 -0.039401535317734
55 -0.015621385643589
56 -0.004044431066365
57 0.006324893168236
58 0.013246282762307
59 -0.013922808387297
60 0.022300832334023
61 -0.005225906782264
 Sym=      6.1
 Ene=      -0.0043
 Spin= Alpha
 Occup=    0.000000
1 0.007198894419461
2 -0.26024321731705
3 -0.54462427123380
4 -1.79068135690604
5 0.005481850631637
6 0.000000000000338
7 0.009082979097069
8 -0.035788331554592
9 -0.000000000008222
10 -0.011069003376858
11 -0.017508814302563
12 -0.000000000000417
13 -0.003200230749419
14 -0.000146242773465
15 0.000202330543119
16 -0.000056087769654
17 -0.000000000000002
18 0.000026518364422
19 -0.000000000000012
20 -0.001120946890041
21 0.005884379541687
22 -0.004763432651646
23 0.000000000001919
24 0.005193529614724
25 0.000000000001131
26 0.010812131961440
27 0.32604133297760
28 0.46583636499165
29 0.001085433282175
30 0.000000000000061
31 0.007398146586916
32 -0.002470578190021
33 -0.000000000000944
34 -0.012322233781197
35 0.006624613264290
36 0.35513430465900
37 0.60004999036243
38 0.007484544467850
39 0.000000000000066
40 -0.003854501619150
41 -0.026300158495407
42 -0.000000000000844
43 0.017626595943509
44 0.000988416535081
45 0.26613693323478
46 0.64361925068197
47 -0.004682321168246
48 -0.007629233211496
49 -0.002528739716135
50 0.005980794799924
51 0.004327705975595
52 0.005207945781626
53 0.000988416535846
54 0.26613693326315
55 0.64361925067824
56 -0.004682321168170
57 0.007629233211560
58 -0.002528739716113
59 0.005980794804472
60 -0.004327705984711
61 0.005207945783815
 Sym=      7.1
 Ene=       0.0327
 Spin= Alpha
 Occup=    0.000000
1 -0.000102433380656
2 -0.014647838751789
3 -0.004506571918713
4 0.010747074670266
5 -0.21007705728809
6 0.000000000021263
7 -0.032760206459371
8 -0.077470967878309
9 0.000000000015077
10 -0.048443204805323
11 -1.01959251684256
12 0.000000000117484
13 -0.25137591923044
14 -0.000517099175133
15 0.001018646902518
16 -0.000501547727385
17 -0.000000000000123
18 0.000449566249872
19 -0.000000000000035
20 0.016596128043748
21 -0.023674045273300
22 0.007077917229552
23 0.000000000001683
24 -0.015586276152678
25 0.000000000000433
26 -0.011730914903817
27 0.086268226155314
28 1.30026781159898
29 -0.004190978694988
30 0.000000000000514
31 0.003781489434347
32 0.059898418346938
33 -0.000000000007231
34 -0.006889487943706
35 -0.048615526874537
36 0.043572539481027
37 3.23971176879921
38 0.007482681618576
39 0.000000000000522
40 -0.007420277534589
41 0.051098389514050
42 -0.000000000007962
43 0.025433265741175
44 0.031387889600168
45 -0.059521528745526
46 -2.25803753109036
47 -0.000521566242529
48 0.007001280816583
49 0.001350906624542
50 0.054486965521986
51 -0.024660246734445
52 0.010008820781316
53 0.031387889608971
54 -0.059521528780712
55 -2.25803753179948
56 -0.000521566241192
57 -0.007001280817774
58 0.001350906625292
59 0.054486965515303
60 0.024660246729380
61 0.010008820778416
 Sym=      8.1
 Ene=       0.0340
 Spin= Alpha
 Occup=    0.000000
1 0.000667241479091
2 -0.013554589288183
3 -0.030952560313533
4 -0.083248801149630
5 0.035991442367074
6 -0.000000000085684
7 -0.21142391007124
8 0.013803494207430
9 -0.000000000046319
10 -0.078640348824229
11 0.16164608117178
12 -0.000000000415645
13 -1.04948124130534
14 0.000805674068564
15 0.000210400437638
16 -0.001016074506202
17 0.000000000000487
18 -0.000722086668803
19 0.000000000000132
20 -0.018882797096942
21 -0.008311193315940
22 0.027193990412883
23 -0.000000000008214
24 0.014888635873535
25 -0.000000000002180
26 -0.053639500195466
27 0.093778689919948
28 3.96397550027112
29 0.002869775856708
30 -0.000000000001901
31 0.010465590065706
32 -0.018810047642603
33 0.000000000025075
34 0.049399929135721
35 0.034722102286745
36 -0.016792664603719
37 -2.39421639451031
38 -0.007748900481795
39 -0.000000000001909
40 -0.000973846624148
41 0.005536302781108
42 0.000000000028219
43 0.064464876934515
44 0.010354838714073
45 0.007330910363493
46 -0.74142957961725
47 0.002286250629705
48 0.002336366098815
49 -0.004337049415220
50 -0.015157899426328
51 -0.005775633416054
52 0.071801446329991
53 0.010354838677582
54 0.007330910464739
55 -0.74142957695893
56 0.002286250624316
57 -0.002336366094047
58 -0.004337049418114
59 -0.015157899406205
60 0.005775633440436
61 0.071801446337651
 Sym=      9.1
 Ene=       0.0341
 Spin= Alpha
 Occup=    0.000000
1 -0.000000000000239
2 0.000000000003793
3 0.000000000011411
4 0.000000000033107
5 -0.000000000036694
6 -0.21577695371530
7 0.000000000081140
8 -0.000000000001331
9 -0.087464830740194
10 0.000000000025155
11 -0.000000000151536
12 -1.01935014415498
13 0.000000000389769
14 -0.000000000000386
15 0.000000000000041
16 0.000000000000345
17 0.001245736725342
18 0.000000000000330
19 0.000363473086156
20 0.000000000010484
21 -0.000000000000847
22 -0.000000000009636
23 -0.026369862970398
24 -0.000000000009103
25 -0.008765086362658
26 0.000000000020223
27 -0.000000000028909
28 -0.000000001447091
29 -0.000000000001571
30 -0.004858761000302
31 -0.000000000003797
32 0.000000000013197
33 0.063905984474633
34 -0.000000000019865
35 -0.000000000020147
36 -0.000000000010024
37 0.000000001261654
38 0.000000000003929
39 -0.004893712949663
40 -0.000000000000419
41 0.000000000009007
42 0.071633359839966
43 -0.000000000026075
44 0.047366983123821
45 -0.079462033001145
46 -3.30467848259396
47 0.006833277192106
48 0.005972448389441
49 0.003658961150771
50 -0.017580380717004
51 0.043833301040612
52 -0.005741043397209
53 -0.047366983124992
54 0.079462033006880
55 3.30467848274836
56 -0.006833277194019
57 0.005972448389853
58 -0.003658961147050
59 0.017580380742951
60 0.043833301035287
61 0.005741043344229
 Sym=     10.1
 Ene=       0.0931
 Spin= Alpha
 Occup=    0.000000
1 0.000500699327485
2 0.014790311333708
3 -0.008011204879764
4 -0.073271340591817
5 0.019791954059738
6 0.000000000000399
7 0.080889919726147
8 -0.20403628410744
9 -0.000000000008596
10 -1.25667206458813
11 -0.59874985850919
12 -0.000000000012867
13 -3.52360610487787
14 -0.009193721533327
15 -0.010674283076032
16 0.019868004609359
17 -0.000000000000062
18 0.003702187921024
19 -0.000000000000028
20 0.12308642501674
21 0.13865686197182
22 -0.26174328698856
23 0.000000000001792
24 -0.050372053320080
25 0.000000000000719
26 0.28224131384443
27 2.78082890605373
28 5.35312820478361
29 -0.002364086280402
30 0.000000000000005
31 -0.015722413699619
32 -0.071620752454423
33 -0.000000000000206
34 -0.55972972376658
35 -0.084292655555950
36 -0.83038823508980
37 -1.58037965866452
38 0.000109643640149
39 -0.000000000000003
40 -0.008847809057793
41 0.14820038200886
42 -0.000000000000442
43 -0.059400333679732
44 -0.10140901569823
45 -0.96903196527057
46 -1.86247600468638
47 -0.002472782160886
48 -0.001789167536257
49 -0.008805531626453
50 -0.096489348036346
51 -0.16190408255212
52 -0.034987921468444
53 -0.10140901569658
54 -0.96903196524037
55 -1.86247600465619
56 -0.002472782160842
57 0.001789167536217
58 -0.008805531626450
59 -0.096489348032345
60 0.16190408254492
61 -0.034987921465998
 Sym=     11.1
 Ene=       0.0962
 Spin= Alpha
 Occup=    0.000000
1 0.002821581541558
2 0.027701792626459
3 -0.080385482870097
4 -0.30449819847395
5 0.072386868296348
6 -0.000000000012012
7 -0.013898902035845
8 -1.19513340392236
9 0.000000000170217
10 0.18826400083848
11 -3.48075086987565
12 0.000000000495477
13 0.60752713733718
14 0.012997234794878
15 -0.014900510233875
16 0.001903275438996
17 0.000000000002703
18 -0.013802491343207
19 0.000000000001317
20 -0.15416099364370
21 0.18173450553346
22 -0.027573511889757
23 -0.000000000032677
24 0.16078118120858
25 -0.000000000015128
26 -0.013338787504605
27 -0.031170181284398
28 -0.20605510847602
29 -0.008591755427938
30 0.000000000001171
31 0.000475077936573
32 0.016764151617555
33 -0.000000000002335
34 -0.004496785850718
35 0.27056940342130
36 2.59472725352042
37 5.14870392816430
38 -0.014600334822103
39 0.000000000001188
40 0.004911727881505
41 -0.45409075741965
42 0.000000000000963
43 0.23382359518071
44 -0.13200517577097
45 -1.18619955807565
46 -2.37179711552675
47 -0.009356638675440
48 -0.001310569881087
49 0.001063867526976
50 -0.11597778231969
51 -0.18360912375266
52 -0.068591303862713
53 -0.13200517583653
54 -1.18619955869208
55 -2.37179711673364
56 -0.009356638676212
57 0.001310569884595
58 0.001063867526547
59 -0.11597778238156
60 0.18360912385284
61 -0.068591303898458
 Sym=     12.1
 Ene=       0.0984
 Spin= Alpha
 Occup=    0.000000
1 0.000000000001468
2 0.000000000011587
3 -0.000000000042470
4 -0.000000000143920
5 0.000000000008127
6 0.069496494548406
7 -0.000000000001715
8 -0.000000000157086
9 -1.16612021568247
10 0.000000000036060
11 -0.000000000481412
12 -3.48343925012426
13 0.000000000097993
14 0.000000000002030
15 -0.000000000002181
16 0.000000000000151
17 -0.020207810395770
18 -0.000000000002060
19 -0.009818438629588
20 -0.000000000021792
21 0.000000000022814
22 -0.000000000001022
23 0.22565535957216
24 0.000000000021936
25 0.10448059896257
26 -0.000000000003758
27 -0.000000000009782
28 -0.000000000033381
29 -0.000000000001313
30 -0.008643992492872
31 -0.000000000000293
32 0.000000000001817
33 0.007037385218404
34 0.000000000001876
35 0.000000000037847
36 0.000000000375711
37 0.000000000744705
38 -0.000000000002329
39 -0.008697562789048
40 0.000000000000775
41 -0.000000000063349
42 -0.016426588123081
43 0.000000000033206
44 -0.23440709203225
45 -2.13831069019065
46 -4.28784977673390
47 -0.002209035819632
48 -0.012210004633971
49 -0.001358075856036
50 -0.20360899250634
51 -0.33927224481741
52 -0.11817973812974
53 0.23440709199428
54 2.13831068992669
55 4.28784977611549
56 0.002209035817343
57 -0.012210004634404
58 0.001358075856585
59 0.20360899248248
60 -0.33927224478251
61 0.11817973811771
 Sym=     13.1
 Ene=       0.1115
 Spin= Alpha
 Occup=    0.000000
1 -0.071152097132753
2 -0.60859025816937
3 2.02892286814062
4 7.28923820228447
5 0.007310948644941
6 0.000000000000369
7 0.004856562649566
8 -0.037919294913435
9 0.000000000024257
10 -0.004189096684580
11 -0.14042179693776
12 -0.000000000036449
13 -0.027893801373454
14 0.000370290808100
15 -0.001231918602436
16 0.000861627794336
17 -0.000000000000304
18 -0.000688919671345
19 -0.000000000000125
20 -0.002312283198540
21 0.008483859351448
22 -0.006171576152908
23 -0.000000000005734
24 0.005006557300434
25 -0.000000000003728
26 0.043958894699070
27 -1.14752063354182
28 -1.17439052851600
29 0.003223278931642
30 -0.000000000000345
31 0.027366611553650
32 0.034991162095221
33 0.000000000003423
34 0.32250627081733
35 0.049757174560598
36 -1.10370228689298
37 -1.06953430097146
38 0.024177833928237
39 -0.000000000000360
40 -0.012372415759971
41 0.28322253065404
42 0.000000000002713
43 -0.14854582881081
44 0.031247166696025
45 -1.23959834734055
46 -1.33384177384369
47 -0.014457361961095
48 -0.022650812323107
49 -0.007473554642829
50 -0.18192061325391
51 -0.28336140800883
52 -0.098721025469980
53 0.031247166699357
54 -1.23959834741925
55 -1.33384177374531
56 -0.014457361961244
57 0.022650812322651
58 -0.007473554642920
59 -0.18192061327028
60 0.28336140804123
61 -0.098721025477682
 Sym=     14.1
 Ene=       0.1744
 Spin= Alpha
 Occup=    0.000000
1 0.000363563320953
2 0.001404430416888
3 -0.009879092945532
4 -0.043030183944372