[Molden Format]
[Molpro variables]
_NUMVAR=  693.0000000000000    
_EV2006= 0.3674930886769165E-01
_EV= 0.3674932534394180E-01
_KJOULE= 0.3808798324128737E-03
_KJOULE/MOL= 0.3808798324128737E-03
_CM= 0.4556335267302901E-05
_CM-1= 0.4556335267302901E-05
_KCAL= 0.1593601117815568E-02
_KCAL/MOL= 0.1593601117815568E-02
_KELVIN2006= 0.3166828861084835E-05
_KELVIN= 0.3166814820820034E-05
_HERTZ2006= 0.1519829850815779E-15
_HERTZ= 0.1519829846011223E-15
_HZ2006= 0.1519829850815779E-15
_HZ= 0.1519829846011223E-15
_TOA2006= 0.5291772490000000    
_TOA= 0.5291772090000000    
_TOANG2006= 0.5291772490000000    
_TOANG= 0.5291772090000000    
_TORAD= 0.1745329251994330E-01
_TOCM=  219474.6306700000    
_TODEBYE=  2.541580000000000    
_TOEV2006=  27.21139610000000    
_TOEV=  27.21138390000000    
_TOHERTZ2006=  6579683899900000.    
_TOHERTZ=  6579683920700000.    
_TOHZ2006=  6579683899900000.    
_TOHZ=  6579683920700000.    
_TOK2006=  315773.3000000000    
_TOK=  315774.7000000000    
_TOKCAL=  627.5096000000000    
_TOKELVIN2006=  315773.3000000000    
_TOKELVIN=  315774.7000000000    
_TOKJ=  2625.500000000000    
_TOKJOULE=  2625.500000000000    
_ANG2006=  1.889725988578923    
_ANG=  1.889726131421507    
_ANGSTROM2006=  1.889725988578923    
_ANGSTROM=  1.889726131421507    
_IGNORE_UNDEF=  2.000000000000000    
_STRICTCHECK=  0.000000000000000    
_SEW_ONEEL=  0.000000000000000    
_CPPDONE=FALSE
_DKROLL_DONE=  0.000000000000000    
_FOCKDONE=TRUE
_GRADONE=FALSE
_HESSDONE=TRUE
_INTDONE=TRUE
_SCFDONE=TRUE
_MODUL_CUDA=FALSE
_MODUL_SLATER=FALSE
_MODUL_MRCC=FALSE
_MRCC_EXEC=
_FITC_AO_SAVED=FALSE
_FITC_MO_SAVED=FALSE
_SHARED_FS=TRUE
_LSTYP=SEWARD
_INTYP=INTS
_GEOMTYP=ZMAT
_GRADTYP=ALASKA
_DIRECT=FALSE
_SYNCM=  0.000000000000000    
_DFTNAME=B3LYP
_DFTFUNC=B88
_BASIS=6-31G
_ZSYMEL=
_ZORIENT=  1.000000000000000    
_NELEC=  10.00000000000000    
!SPIN=  0.000000000000000    
_OPTCONV= 0.4398784278030549E-04
_QSDSTEP=  0.000000000000000    
_QSDIRC=  0.000000000000000    
_PROGRAM=FREQ
_CPUSTEP=  0.000000000000000    
_SYSSTEP=  0.000000000000000    
_WALLSTEP=  0.000000000000000    
!DFSCF=  0.000000000000000    
!SCSGRD=  0.000000000000000    
_BASINP=  610.0000000000000    
_CPUTOT=  82.98000000000000    
_CPUSORT= 0.4000000000000625E-01
_SYSSORT= 0.9999999999999787E-02
_WALLSORT= 0.5999999959021807E-01
_DFTEXFAC= 0.2000000000000000    
_DFTFAC= 0.7200000000000000    
_DFTFUN= -5.553640716150839    
_DFTFUNS= -6.571577410593300    
_DMX= 0.1266167398816798E-03
_DMY=-0.1110250780200772E-11
_DMZ= 0.8225968673744588E-04
_FREQUENCIES= 0.3535827845145086E-04
_ENERGY= -40.47464414520149    
_ENUC=  13.39256208019582    
_FREQSTEP=  22.00000000000000    
_GRADENERG= -40.47463931238931    
_GRADEXFAC= 0.2000000000000000    
_GRADMETHOD=  1.000000000000000    
_VIRIAL= 0.2860314129814803E-02
_GRID=  1800.200000000000    
!GRID_FREEZE= -1.000000000000000    
_GRID_SPARSITY=  0.000000000000000    
_GRID_RMAX=  6.732420671844528    
_ITERATIONS=  4.000000000000000    
_LASTNELEC=  10.00000000000000    
_LASTSPIN=  0.000000000000000    
_LASTSYM=  1.000000000000000    
_MPP_PROG=  0.000000000000000    
_NGRID=  13354.00000000000    
_NPROC_MPP=  1.000000000000000    
_NPROC_SMP=  1.000000000000000    
_NUMSTEP=  0.000000000000000    
_OPTCONVMX= 0.3555240659345687E-04
_OPTCONVRMS= 0.1466261426010183E-04
_OPTGRAD= 0.5489527542299974E-04
_OPTGRADMX= 0.5149330251983090E-04
_OPTGRADRMS= 0.1829842514099992E-04
_OPTSTEP=  4.000000000000000    
_ORBITAL=  2101.200000000000    
_PI=  3.141592653589793    
_SEIG_MIN= 0.2075349537119853E-01
_SEWPROP=TRUE
_STATUS=  1.000000000000000    
_SYSTOT=  5.340000000000000    
_VERSION=  2010001.000000000    
_WALLTOT=  90.68000000000001    
_ZPE= 0.4543505591683641E-01
_DATE=17-Aug-24
_LASTORB=RKS
_MACHINE=Linux-3.10.0-1160.108.1.el7.x86_64/molmod(x86_64) 64 bit serial version
_OUTPUT=/home/ospite/Desktop/MMfP/Project6/CH4/molpro/DFT/ch4_Pople631.xml
_PGROUP=C1
_TIME=17:13:42
_LIBMOL=/usr/local/molpro/molpros_2010_1_Linux_x86_64_i8/lib/
!SURFREC=  0.000000000000000    
!POLYREC=  0.000000000000000    
!DIPREC=  0.000000000000000    
!VSCFREC=  0.000000000000000    
!VCIREC=  0.000000000000000    
!PVCIREC=  0.000000000000000    
!VMP2REC=  0.000000000000000    
!VMCSCFREC=  0.000000000000000    
!GAREC=  0.000000000000000    
!SCFORB=  21002.00000000000    
!NEWMOL=  0.000000000000000    
!NEWSYM=  0.000000000000000    
_SLFILES=slscratch
_NGSSTO=  9.000000000000000    
_SIN=SIN
_COS=COS
_TAN=TAN
_ACOS=ACOS
_ASIN=ASIN
_ATAN=ATAN
_COSH=COSH
_SINH=SINH
_TANH=TANH
_ABS=ABS
_MOD=MOD
_ERF=ERF
_REFC=REFC
_ERFC=ERFC
_HYPOT=HYPOT
_J0=J0
_J1=J1
_JN=JN
_GAMMA=GAMMA
_LGAMMA=LGAMMA
_Y0=Y0
_Y1=Y1
_YN=YN
_EXP=EXP
_LOG=LOG
_LOG10=LOG10
_SQRT=SQRT
_INT=INT
_NINT=NINT
_MAX=MAX
_MIN=MIN
_COSMO=  0.000000000000000    
_COSMOIT=  0.000000000000000    
_COSMOES=  0.000000000000000    
_COSMOEDS=  0.000000000000000    
_COSMOEC=  0.000000000000000    
_COSMOEDCORR=  0.000000000000000    
_FEPSI=  1.000000000000000    
_SL_IsMM=  0.000000000000000    
_SL_NSYM=  0.000000000000000    
_SL_System_BitSw=  0.000000000000000    
_SL_Unique_atoms=  0.000000000000000    
_SL_GRAD=  0.000000000000000    
_SL_MAXUPD_Hess=  5.000000000000000    
_SL_N_PRINT_COD=  5.000000000000000    
_SL_PRINT_CODES=  0.000000000000000    
_SL_BasType=  0.000000000000000    
_SL_Energy_Pred=  0.000000000000000    
_SL_New_Coords=  0.000000000000000    
_SL_Total_Nuclea=  0.000000000000000    
_SL_Highest_Mltp=  0.000000000000000    
_SL_Ref_Geom=  0.000000000000000    
!LATTICE= -1.000000000000000    
!NEWLATTICE=  0.000000000000000    
!LATGRAD_VAR=FALSE
!SEW_LATTICE=  1.000000000000000    
!LOCAL=  0.000000000000000    
!SAVEOCC=  0.000000000000000    
!SAVEDOM= -1.000000000000000    
!RESTDOM= -1.000000000000000    
!SAVEDOM_HF= -1.000000000000000    
!RESTDOM_HF= -1.000000000000000    
!HESSREC=  5300.200000000000    
!FREQREC=  5400.200000000000    
!NMODREC=  5450.200000000000    
!GTASKS=  0.000000000000000    
!HTASKS=  5500.200000000000    
!THRCHG= 0.1000000000000000    
!DEBUG= -1.000000000000000    
!CFIT_CPHF=  0.000000000000000    
!RDOMAUX_CPHF=  5.000000000000000    
!THRAO_CPHF= 0.9999999999999999E-11
!THRMO_CPHF= 0.9999999999999999E-11
!THROV_CPHF= 0.1000000000000000E-11
!THRSW_CPHF= 0.1000000000000000E-09
!THRPROD_CPHF= 0.9999999999999999E-11
!THRAOPR_CPHF= 0.1000000000000000E-11
!CFIT_SCFGRD=  0.000000000000000    
!RDOMAUX_SCFGRD=  7.000000000000000    
!THRAO_SCFGRD= 0.9999999999999999E-11
!THRMO_SCFGRD= 0.9999999999999999E-11
!THROV_SCFGRD= 0.1000000000000000E-11
!THRSW_SCFGRD= 0.1000000000000000E-09
!THRPROD_SCFGRD= 0.9999999999999999E-11
!THRAOPR_SCFGRD= 0.1000000000000000E-11
!LOCFIT_SCF=  0.000000000000000    
!LOCFIT_MP2= -1.000000000000000    
_RIDOM=  0.000000000000000    
!CC2_METHOD=  0.000000000000000    
_BASIS2006=FALSE
_SVDDEL= -1.000000000000000    
_SVDDELA= -1.000000000000000    
_SVDDELP= -1.000000000000000    
_SVDDELF= -1.000000000000000    
_SVDDELS= -1.000000000000000    
_SVDDEL_ABS= -1.000000000000000    
_SVDDELA_ABS= -1.000000000000000    
_SVDDELP_ABS= -1.000000000000000    
_SVDDELF_ABS= -1.000000000000000    
_SVDDELS_ABS= -1.000000000000000    
_MAXBASIS=  0.000000000000000    
!OPT_CONICAL=  0.000000000000000    
!CLEARSP_JGRID=  0.000000000000000    
D=  1.093485634980240    
A=  109.4787309533264    
T=  120.0032692619052    
GX1= 0.6833813896510590E-05
GY1= -0.000000000000000    
GZ1= 0.4915642658223365E-04
GX2=-0.2228874030070754    
GY2= -0.000000000000000    
GZ2=  2.054380943419780    
GX3=  2.011085264188460    
GY3= -0.000000000000000    
GZ3=-0.4748450199336390    
GX4=-0.8941396477656782    
GY4= -1.687065258582767    
GZ4=-0.7900608451685123    
GX5=-0.8941396477656782    
GY5=  1.687065258582767    
GZ5=-0.7900608451685123    
CX1= 0.6833813896510443E-05
CY1=  0.000000000000000    
CZ1= 0.4915642658223293E-04
H1X2=-0.2228874030070754    
H1Y2=  0.000000000000000    
H1Z2=  2.054380943419780    
H2X3=  2.011085264188460    
H2Y3=  0.000000000000000    
H2Z3=-0.4748450199336390    
H3X4=-0.8941396477656782    
H3Y4= -1.687065258582767    
H3Z4=-0.7900608451685123    
H4X5=-0.8941396477656782    
H4Y5=  1.687065258582767    
H4Z5=-0.7900608451685123    
[Atoms] Angs
C     1    6         0.0000036163       -0.0000000000        0.0000260125
H     2    1        -0.1179469338       -0.0000000000        1.0871315739
H     3    1         1.0642204872       -0.0000000000       -0.2512771624
H     4    1        -0.4731583233       -0.8927564849       -0.4180821930
H     5    1        -0.4731583233        0.8927564849       -0.4180821930
[GTO]
  1 0
 s    6  1.00
  0.3047524900D+04  0.1834737091D-02
  0.4573695200D+03  0.1403732293D-01
  0.1039486800D+03  0.6884262165D-01
  0.2921015500D+02  0.2321844388D+00
  0.9286663000D+01  0.4679413476D+00
  0.3163927000D+01  0.3623119882D+00
 s    3  1.00
  0.7868272300D+01 -0.1193324245D+00
  0.1881288500D+01 -0.1608541561D+00
  0.5442492600D+00  0.1143456443D+01
 s    1  1.00
  0.1687144800D+00  0.1000000000D+01
 p    3  1.00
  0.7868272300D+01  0.6899906693D-01
  0.1881288500D+01  0.3164239597D+00
  0.5442492600D+00  0.7443082892D+00
 p    1  1.00
  0.1687144800D+00  0.1000000000D+01
  
  2 0
 s    3  1.00
  0.1873113700D+02  0.3349460400D-01
  0.2825394400D+01  0.2347269500D+00
  0.6401216900D+00  0.8137573301D+00
 s    1  1.00
  0.1612777600D+00  0.1000000000D+01
  
  3 0
 s    3  1.00
  0.1873113700D+02  0.3349460400D-01
  0.2825394400D+01  0.2347269500D+00
  0.6401216900D+00  0.8137573301D+00
 s    1  1.00
  0.1612777600D+00  0.1000000000D+01
  
  4 0
 s    3  1.00
  0.1873113700D+02  0.3349460400D-01
  0.2825394400D+01  0.2347269500D+00
  0.6401216900D+00  0.8137573301D+00
 s    1  1.00
  0.1612777600D+00  0.1000000000D+01
  
  5 0
 s    3  1.00
  0.1873113700D+02  0.3349460400D-01
  0.2825394400D+01  0.2347269500D+00
  0.6401216900D+00  0.8137573301D+00
 s    1  1.00
  0.1612777600D+00  0.1000000000D+01


[MO]
 Sym=      1.1
 Ene=     -10.1565
 Spin= Alpha
 Occup=    2.000000
1 0.99520173713729
2 0.036360471895940
3 -0.029181575287776
4 -0.000000094385944
5 0.000000000000008
6 -0.000000611467407
7 0.000000318492956
8 -0.000000000000004
9 0.000002034331624
10 -0.000744021829965
11 0.005559012820024
12 -0.000743887211495
13 0.005559805998980
14 -0.000743853551126
15 0.005560133652247
16 -0.000743853551129
17 0.005560133652252
 Sym=      2.1
 Ene=      -0.6893
 Spin= Alpha
 Occup=    2.000000
1 -0.19910319332900
2 0.38313827530238
3 0.36524194444580
4 -0.000002772264911
5 -0.000000000000612
6 -0.000033567779400
7 -0.000001187215031
8 -0.000000000000083
9 -0.000033723263008
10 0.13483659058046
11 0.037519780363381
12 0.13484427757824
13 0.037509524479634
14 0.13484169925372
15 0.037519796193914
16 0.13484169925215
17 0.037519796193318
 Sym=      3.1
 Ene=      -0.3864
 Spin= Alpha
 Occup=    2.000000
1 0.000022767431626
2 -0.000035813379454
3 -0.000134723151472
4 0.016034674937028
5 -0.000000006191372
6 -0.44681381459039
7 0.007473947534738
8 -0.000000002871782
9 -0.20734280404337
10 -0.29998342588323
11 -0.25155786152119
12 0.079536962155723
13 0.066719366946731
14 0.11021144749734
15 0.092485898549271
16 0.11021144069546
17 0.092485892842513
 Sym=      4.1
 Ene=      -0.3864
 Spin= Alpha
 Occup=    2.000000
1 -0.000004546082237
2 0.000006133556767
3 0.000041806802957
4 0.44682730497390
5 0.000000011251513
6 0.016047720162256
7 0.20734292680751
8 0.000000005219599
9 0.007405844073426
10 -0.021687722069689
11 -0.018171513627110
12 0.29006114951049
13 0.24326278657272
14 -0.13418176359611
15 -0.11257353319035
16 -0.13418175123622
17 -0.11257352281957
 Sym=      5.1
 Ene=      -0.3864
 Spin= Alpha
 Occup=    2.000000
1 0.000000000000120
2 0.000000000000411
3 -0.000000000003948
4 -0.000000011022340
5 0.44711395921615
6 -0.000000006590791
7 -0.000000005114329
8 0.20742944591931
9 -0.000000003055992
10 -0.000000003608370
11 -0.000000003027424
12 -0.000000006197577
13 -0.000000005196958
14 -0.24556487782920
15 -0.20605641515153
16 0.24556488763514
17 0.20605642338153
 Sym=      6.1
 Ene=       0.1203
 Spin= Alpha
 Occup=    0.000000
1 -0.15955876166330
2 0.18143771744277
3 2.57778560737371
4 -0.000153600486517
5 0.000000000001232
6 -0.000155112429391
7 -0.000628572654286
8 0.000000000003074
9 -0.000211943449237
10 -0.020828841644218
11 -0.98491389915726
12 -0.020704851464126
13 -0.98433023595781
14 -0.020710741517197
15 -0.98557316425620
16 -0.020710741517892
17 -0.98557316426285
 Sym=      7.1
 Ene=       0.1787
 Spin= Alpha
 Occup=    0.000000
1 0.000003811305807
2 -0.000044409257650
3 0.000158702292476
4 0.11535176284350
5 0.000000002913257
6 -0.36877245093495
7 0.40622312817181
8 0.000000010245174
9 -1.29800257868874
10 0.12855074912738
11 1.84246568883291
12 -0.066839062588205
13 -0.95770968473890
14 -0.030820039434561
15 -0.44251516861481
16 -0.030820041047226
17 -0.44251519172153
 Sym=      8.1
 Ene=       0.1787
 Spin= Alpha
 Occup=    0.000000
1 0.000000000000768
2 -0.000000000001012
3 -0.000000000012420
4 -0.000000002808102
5 0.38658259702979
6 0.000000002172107
7 -0.000000009881892
8 1.35947577203116
9 0.000000007646504
10 -0.000000000835086
11 -0.000000011964364
12 0.000000001096442
13 0.000000015712673
14 0.10695720238909
15 1.53326578130432
16 -0.10695720265047
17 -1.53326578503317
 Sym=      9.1
 Ene=       0.1787
 Spin= Alpha
 Occup=    0.000000
1 0.000073546541080
2 -0.000163237068584
3 -0.000950742205530
4 -0.36884827575588
5 -0.000000002031828
6 -0.11546699562518
7 -1.29769738383214
8 -0.000000007145800
9 -0.40607755548650
10 0.025403673650151
11 0.36470042787897
12 0.11278417583877
13 1.61587639617869
14 -0.069041039590344
15 -0.98953316379317
16 -0.069041038466156
17 -0.98953314767392
 Sym=     10.1
 Ene=       0.5478
 Spin= Alpha
 Occup=    0.000000
1 -0.000019149403462
2 0.000153948109408
3 0.000106559709272
4 -0.48827381906419
5 -0.000000000419586
6 0.63987600409453
7 0.95221116263224
8 0.000000000818594
9 -1.24812258150467
10 0.42606453544554
11 0.29536425469615
12 -0.38485174905601
13 -0.26680951650265
14 -0.020608131370398
15 -0.014472317599566
16 -0.020608131795453
17 -0.014472317891838
 Sym=     11.1
 Ene=       0.5478
 Spin= Alpha
 Occup=    0.000000
1 0.000000000000073
2 -0.000000000001120
3 0.000000000001858
4 0.000000000286648
5 -0.80464909387372
6 -0.000000000309460
7 -0.000000000558863
8 1.56962602867769
9 0.000000000605484
10 -0.000000000209399
11 -0.000000000147205
12 0.000000000216398
13 0.000000000150434
14 0.40667300702562
15 0.28159854668346
16 -0.40667300703204
17 -0.28159854668860
 Sym=     12.1
 Ene=       0.5478
 Spin= Alpha
 Occup=    0.000000
1 -0.000019143526611
2 0.000062365764362
3 0.000286103708462
4 0.63977527154907
5 0.000000000039690
6 0.48817577525243
7 -1.24795199615700
8 -0.000000000077251
9 -0.95247133793440
10 0.25762924143250
11 0.17859736690280
12 0.31588223767515
13 0.21871892882500
14 -0.28677397199051
15 -0.19891526832475
16 -0.28677397195033
17 -0.19891526829742
 Sym=     13.1
 Ene=       0.9417
 Spin= Alpha
 Occup=    0.000000
1 -0.000000000000436
2 0.000000000002635
3 -0.000000000002317
4 -0.000000000817981
5 -0.82206697838536
6 0.000000000535520
7 0.000000001036916
8 1.04231217092956
9 -0.000000000679991
10 -0.000000000795218
11 0.000000001265521
12 0.000000001171979
13 -0.000000001869154
14 -0.85766335946553
15 1.36624723666204
16 0.85766335908045
17 -1.36624723605269
 Sym=     14.1
 Ene=       0.9417
 Spin= Alpha
 Occup=    0.000000
1 -0.000321755248786
2 0.002434103708344
3 -0.003012515835815
4 -0.74460634456899
5 0.000000000967384
6 0.34809541752413
7 0.94400539655927
8 -0.000000001226579
9 -0.44123546161111
10 -0.54691682125843
11 0.86944106458467
12 1.02643619591798
13 -1.63643570672663
14 -0.24366886574116
15 0.38660157860381
16 -0.24366886776051
17 0.38660158182008
 Sym=     15.1
 Ene=       0.9417
 Spin= Alpha
 Occup=    0.000000
1 -0.000321922779377
2 0.001725466064994
3 -0.001587721315545
4 0.34814864499570
5 0.000000000138978
6 0.74466062715166
7 -0.44142476432531
8 -0.000000000176242
9 -0.94398783406110
10 -0.90007244582130
11 1.43163124037580
12 -0.21634268345944
13 0.34284189421387
14 0.55428759530009
15 -0.88469014231806
16 0.55428759501026
17 -0.88469014185619
 Sym=     16.1
 Ene=       0.9477
 Spin= Alpha
 Occup=    0.000000
1 -0.10664889731670
2 0.80638755358181
3 -1.00822204377483
4 0.001210662593621
5 -0.000000000001080
6 -0.003263361891271
7 -0.001601236425990
8 0.000000000001339
9 0.003917796038905
10 -0.64939262972408
11 0.51507674926791
12 -0.65609486193249
13 0.52556336310612
14 -0.65453101695811
15 0.52293035338981
16 -0.65453101695715
17 0.52293035338748
 Sym=     17.1
 Ene=       1.1134
 Spin= Alpha
 Occup=    0.000000
1 -0.068444190572656
2 -2.24417500370833
3 5.30693353444337
4 -0.000100294134538
5 0.000000000000299
6 -0.000104855515707
7 0.000107818098211
8 -0.000000000000455
9 -0.000360517039597
10 -0.28867770815648
11 -1.01034894137466
12 -0.28896913979954
13 -1.01037673102977
14 -0.28919517312204
15 -1.01005512907209
16 -0.28919517312177
17 -1.01005512907180
 [FREQ]
      0.00
      0.00
      0.00
      0.00
      0.00
      0.00
   1402.20
   1402.31
   1402.51
   1600.05
   1600.34
   3042.35
   3164.44
   3164.61
   3164.87
 [FR-COORD]
C          0.0000068338       -0.0000000000        0.0000491564
H         -0.2228874030       -0.0000000000        2.0543809434
H          2.0110852642       -0.0000000000       -0.4748450199
H         -0.8941396478       -1.6870652586       -0.7900608452
H         -0.8941396478        1.6870652586       -0.7900608452
 [FR-NORM-COORD]
 Vibration                    1
         -0.09949766         -0.04518251          0.16335353
         -0.07222086         -0.14267870          0.16631305
         -0.10580316         -0.35423090          0.13665104
         -0.39546579          0.15812473          0.06418541
          0.17548878          0.15812473          0.28626606
 Vibration                    2
          0.09265207          0.10044566         -0.07040238
         -0.13876659          0.02721885         -0.09551122
          0.14614848         -0.26551110          0.15614383
         -0.14798481          0.32007031         -0.26702880
          0.51129933          0.32007031         -0.07522558
 Vibration                    3
          0.00740162          0.15992073          0.06945469
          0.23970703          0.52740249          0.09465974
         -0.04629978          0.01340672         -0.15795960
         -0.13494801          0.04936991          0.46659922
         -0.02894123          0.04936991         -0.12546830
 Vibration                    4
          0.04482292          0.11099433          0.06007080
          0.21838151         -0.35156389          0.07890184
          0.00470186          0.40033257         -0.10983357
          0.13511587          0.19768338         -0.22721225
         -0.17897366          0.19768338          0.49843637
 Vibration                    5
          0.03795635          0.03361167          0.13021941
         -0.41393766          0.09853121          0.08118908
          0.14241943          0.21118047          0.57259892
          0.37755509         -0.08765438          0.00483524
          0.04596063         -0.08765438         -0.13776952
 Vibration                    6
          0.20085981         -0.10572842          0.07282165
          0.35926680         -0.04283324          0.09000875
          0.16424130         -0.18273411         -0.08225014
          0.08615533         -0.09868206          0.18758406
          0.19371546         -0.09868206          0.09595231
 Vibration                    7
          0.07540485         -0.00000000         -0.08791449
         -0.30559117          0.00000000         -0.09689770
          0.13577832          0.00000000          0.30472338
         -0.36437013         -0.00436501          0.41989853
         -0.36437013          0.00436501          0.41989853
 Vibration                    8
          0.00000000         -0.11583269          0.00000000
         -0.00000000          0.55657092          0.00000000
         -0.00000000          0.55545817         -0.00000000
         -0.22320831          0.13413883         -0.19786686
          0.22320831          0.13413883          0.19786686
 Vibration                    9
         -0.08793429         -0.00000000         -0.07539902
          0.46084372          0.00000000          0.00633870
          0.05940724          0.00000000          0.44773357
          0.26380390         -0.29823447          0.22220571
          0.26380390          0.29823447          0.22220571
 Vibration                   10
         -0.00000000         -0.00011845         -0.00000000
          0.00000000         -0.49738300          0.00000000
          0.00000000          0.49860729          0.00000000
         -0.32999161          0.00009361          0.37305117
          0.32999161          0.00009361         -0.37305117
 Vibration                   11
         -0.00000166         -0.00000000          0.00004763
          0.49496710          0.00000000          0.05380454
          0.11459642         -0.00000000          0.48443349
         -0.30477188          0.28766257         -0.26940277
         -0.30477188         -0.28766257         -0.26940277
 Vibration                   12
          0.00010473          0.00000000          0.00001757
         -0.05384646          0.00000000          0.49530524
          0.48378952          0.00000000         -0.11439419
         -0.21559554         -0.40692021         -0.19056018
         -0.21559554          0.40692021         -0.19056018
 Vibration                   13
          0.00000000         -0.08663934         -0.00000000
         -0.00000000         -0.02387032          0.00000000
         -0.00000000         -0.02385399          0.00000000
          0.29888166          0.54007597          0.26411198
         -0.29888166          0.54007597         -0.26411198
 Vibration                   14
         -0.07264706          0.00000000         -0.04720235
         -0.06133287          0.00000000          0.36688669
          0.54930070          0.00000000         -0.14753860
          0.18886121          0.39408657          0.17156664
          0.18886121         -0.39408657          0.17156664
 Vibration                   15
          0.04719813          0.00000000         -0.07267439
         -0.06831590          0.00000000          0.73020786
         -0.58246349          0.00000000          0.12069685
          0.04417417          0.05882504          0.00755559
          0.04417417         -0.05882504          0.00755559
