
 Primary working directories    : /data/scratch
 Secondary working directories  : /data/scratch
 Wavefunction directory         : /home/ospite/wfu/
 Main file repository           : /data/scratch/

 ARCHNAME  : Linux/x86_64
 FC        : /usr/bin/gfortran
 FCVERSION : 4.8.5
 BLASLIB   : 
 id        : polimi

 Nodes     nprocs
 molmod       1

 Using default tuning parameters: mindgm=1; mindgv=20; mindgc=4; mindgr=1; noblas=0; mincuda=1000; minvec=7
 default implementation of scratch files=df  

 ***,methane with imposed symmetry and 6-31++G basis set
 memory,100,m
 
 basis=6-31++G
 symmetry,y
 
 geometry={angstrom
 C
 H1, C, d
 H2, C, d, H1, a
 H3, C, d, H1, a, H2, t
 H4, C, d, H1, a, H2, -t
 }
 
 d=1.09 Ang
 a=109.47 Deg
 t=120.0 Deg
 
 {dfunc,b3lyp}
 ks
 optg
 frequencies
 put,molden,ch4_6-31++G.molpro

 Variables initialized (661), CPU time= 0.01 sec
 Commands  initialized (458), CPU time= 0.05 sec, 486 directives.
 Default parameters read. Elapsed time= 0.24 sec

 Checking input...
 Passed
1


                                         ***  PROGRAM SYSTEM MOLPRO  ***
                         Copyright, University College Cardiff Consultants Limited, 2008

                                    Version 2010.1 linked Mar  6 2018 16:01:50


 **********************************************************************************************************************************
 LABEL *   methane with imposed symmetry and 6-31++G basis set                           
 Linux-3.10.0-1160.108.1.el7.x86_64/molmod(x86_64) 64 bit serial version                 DATE: 17-Aug-24          TIME: 17:04:38  
 **********************************************************************************************************************************

 SHA1:             d90fb18d49a3be29a79769f900c595ef3b8176e2
 **********************************************************************************************************************************

 Variable memory set to  100000000 words,  buffer space   230000 words

 SETTING BASIS          =    6-31++G
 ZSYMEL=Y  

 SETTING D              =         1.09000000  ANG                             
 SETTING A              =       109.47000000  DEG                             
 SETTING T              =       120.00000000  DEG                             


 Recomputing integrals since basis changed


 Using spherical harmonics

 Library entry C      S 6-31G                selected for orbital group  1
 Library entry C      S 6-31++G              selected for orbital group  1
 Library entry C      P 6-31G                selected for orbital group  1
 Library entry C      P 6-31++G              selected for orbital group  1
 Library entry H      S 6-31G                selected for orbital group  2
 Library entry H      S 6-31++G              selected for orbital group  2

1PROGRAM * SEWARD (Integral evaluation for generally contracted gaussian basis sets)     Author: Roland Lindh, 1990

 Geometry written to block  1 of record 700

 Orientation using atomic masses  
 Molecule type: Symmetric top,     Order of principal axis = 3
 User-specified symmetry elements: Y
 Symmetry elements: Y
 Rotational constants:     158.2574080    158.2574080    158.2538321 GHz  (calculated with average atomic masses)

 Point group  Cs  



 ATOMIC COORDINATES

 NR  ATOM    CHARGE       X              Y              Z

   1  C       6.00   -0.000000000    0.000000000   -0.000007798
   2  H1      1.00   -0.000000000    0.000000000    2.059793685
   3  H2      1.00    1.942014089    0.000000000   -0.686566920
   4  H3      1.00   -0.971007045   -1.681833536   -0.686566920
   5  H4      1.00   -0.971007045    1.681833536   -0.686566920

 Bond lengths in Bohr (Angstrom)

 1-2  2.059801483  1-3  2.059801483  1-4  2.059801483  1-5  2.059801483
     ( 1.090000000)     ( 1.090000000)     ( 1.090000000)     ( 1.090000000)

 Bond angles

  2-1-3  109.47000000   2-1-4  109.47000000   2-1-5  109.47000000   3-1-4  109.47244124

  3-1-5  109.47244124   4-1-5  109.47244124

 NUCLEAR CHARGE:                   10
 NUMBER OF PRIMITIVE AOS:          46
 NUMBER OF SYMMETRY AOS:           46
 NUMBER OF CONTRACTIONS:           25   (  19A'  +   6A"  )
 NUMBER OF CORE ORBITALS:           1   (   1A'  +   0A"  )
 NUMBER OF VALENCE ORBITALS:        8   (   6A'  +   2A"  )


 NUCLEAR REPULSION ENERGY   13.43538921


 Eigenvalues of metric

         1 0.438E-02 0.102E-01 0.102E-01 0.161E-01 0.701E-01 0.701E-01 0.224E+00 0.258E+00
         2 0.102E-01 0.701E-01 0.258E+00 0.577E+00 0.988E+00 0.286E+01


 Contracted 2-electron integrals neglected if value below      1.0D-11
 AO integral compression algorithm  1   Integral accuracy      1.0D-11

     0.524 MB (compressed) written to integral file ( 71.3%)


 NUMBER OF SORTED TWO-ELECTRON INTEGRALS:      30346.     BUFFER LENGTH:  32768
 NUMBER OF SEGMENTS:   1  SEGMENT LENGTH:      30346      RECORD LENGTH: 524288

 Memory used in sort:       0.59 MW

 SORT1 READ       48316. AND WROTE       27388. INTEGRALS IN      1 RECORDS. CPU TIME:     0.00 SEC, REAL TIME:     0.00 SEC
 SORT2 READ       27388. AND WROTE       30346. INTEGRALS IN      2 RECORDS. CPU TIME:     0.05 SEC, REAL TIME:     0.05 SEC

 FILE SIZES:   FILE 1:     3.1 MBYTE,  FILE 4:     4.2 MBYTE,   TOTAL:      7.4 MBYTE

 OPERATOR DM      FOR CENTER  0  COORDINATES:    0.000000    0.000000    0.000000


 **********************************************************************************************************************************
 DATASETS  * FILE   NREC   LENGTH (MB)   RECORD NAMES
              1      19        2.77       500      610      700      900      950      970     1000      129      960     1100   
                                          VAR    BASINP    GEOM    SYMINP    ZMAT    AOBASIS   BASIS     P2S    ABASIS      S 
                                         1400     1410     1200     1210     1080     1600     1650     1300     1700   
                                           T        V       H0       H01     AOSYM     SMH    MOLCAS    ERIS     OPER   

 PROGRAMS   *        TOTAL       INT
 CPU TIMES  *         0.71      0.20
 REAL TIME  *         1.14 SEC
 DISK USED  *         7.87 MB      
 **********************************************************************************************************************************

 Density functional group B3LYP=B88+DIRAC+LYP+VWN5
 Functional: B88(Automatically generated B88)                                  Gradient terms: 1
 Functional: DIRAC(Automatically generated DIRAC)                              Gradient terms: 0
 Functional: LYP(Lee-Yang-Parr gradient-corrected correlation energy (1988))   Gradient terms: 1
 Functional: VWN5(Automatically generated VWN5)                                Gradient terms: 0
 Use grid at  1800.2


 Exact exchange will be calculated, factor:  0.2000

 Functional: B88                       Factor:  0.7200
 Functional: DIRAC                     Factor:  0.0800
 Functional: LYP                       Factor:  0.8100
 Functional: VWN5                      Factor:  0.1900

 Generated new metagrid on record  1800.2 with target accuracy 1.0D-06 and 7496 points in CPU time    0.3
 Computed new grid on record 1800.1 in CPU time    0.3
   23720 words reserved for DFT integration

 PROGRAM * RKS-SCF (Restricted closed shell Kohn-Sham)     Authors: W. Meyer, H.-J. Werner, P.J. Knowles, 1993

 NUMBER OF ELECTRONS:       5+    5-
 CONVERGENCE THRESHOLDS:    1.00E-05 (Density)    1.00E-06 (Energy)
 MAX. NUMBER OF ITERATIONS:       60
 INTERPOLATION TYPE:            DIIS
 INTERPOLATION STEPS:              2 (START)      1 (STEP)
 LEVEL SHIFTS:                  0.00 (CLOSED)  0.00 (OPEN) 



 Use fine grid record 1800.2 for energy threshold 1.0D-06
 Orbital guess generated from atomic densities. Full valence occupancy:    7   2

 Molecular orbital dump at record        2100.2

 Initial alpha occupancy:   4   1
 Initial beta  occupancy:   4   1
 Wave function symmetry:    1

 ITERATION    DDIFF          GRAD             ENERGY        2-EL.EN.            DIPOLE MOMENTS         DIIS
    1      0.000D+00      0.000D+00       -40.39612016     66.354758    0.00014    0.00000    0.00010    0
    2      0.000D+00      0.377D-01       -40.36669664     58.863147    0.00090    0.00000    0.00108    1
    3      0.532D-01      0.426D-01       -40.47695168     62.878428    0.00030    0.00000    0.00032    2
    4      0.286D-01      0.583D-03       -40.47697897     62.810797    0.00034    0.00000    0.00037    3
    5      0.824D-03      0.679D-04       -40.47697924     62.816530    0.00033    0.00000    0.00036    4
    6      0.435D-04      0.474D-05       -40.47697924     62.816928    0.00033    0.00000    0.00037    3
    7      0.443D-05      0.400D-06       -40.47697924     62.816851    0.00033    0.00000    0.00037    0

 Final occupancy:   4   1

 !RKS STATE 1.1 Energy                -40.476979241203
 Nuclear energy                        13.43538921
 One-electron energy                  -79.77101621
 Two-electron energy                   31.40842546
 SCF exchange energy                   -6.56428558     Factor=0.2000
 Density functional                    -5.54977769     B88=-6.56701459 DIRAC=-5.88327826 LYP=-0.29416593 VWN5=-0.59258168
 Virial quotient                       -1.00581226
 !RKS STATE 1.1 Dipole moment           0.00033314     0.00000000     0.00036533
 Dipole moment /Debye                   0.00084671     0.00000000     0.00092851

 Orbital energies:

         1.1          2.1          3.1          4.1          5.1          6.1
    -10.160415    -0.696268    -0.392704    -0.392695    -0.002717     0.042159

         1.2          2.2          3.2
     -0.392689     0.043715     0.107409


 **********************************************************************************************************************************
 DATASETS  * FILE   NREC   LENGTH (MB)   RECORD NAMES
              1      20        3.01       500      610      700      900      950      970     1000      129      960     1100   
                                          VAR    BASINP    GEOM    SYMINP    ZMAT    AOBASIS   BASIS     P2S    ABASIS      S 
                                         1400     1410     1200     1210     1080     1600     1650     1300     1700     1800   
                                           T        V       H0       H01     AOSYM     SMH    MOLCAS    ERIS     OPER     GRID   

              2       4        0.30       700     1000     1800     2100   
                                         GEOM     BASIS    GRID      RKS  

 PROGRAMS   *        TOTAL        KS       INT
 CPU TIMES  *         2.71      2.00      0.20
 REAL TIME  *         4.36 SEC
 DISK USED  *         7.87 MB      
 **********************************************************************************************************************************


 PROGRAM * OPT (Geometry optimization)     Authors: F. Eckert and H.-J. Werner


 BFGS update of hessian

 *** Long output written to logfile /home/ospite/Desktop/MMfP/Project6/CH4/molpro/DFT/ch4_++.log ***


 Geometry optimization using default procedure for command KS-SCF

 Geometry written to block  1 of record 700

 Making model hessian for Z-matrix coordinates

 Quadratic Steepest Descent - Minimum Search

 Optimization point 1

 Variable                      Last           Current        Next           Gradient       Hessian

 E(KS-SCF000) / Hartree      0.00000000   -40.47697924     0.00000000
 D / ANG                     0.00000000     1.09000000     1.09299165    -0.02055989     6.87242182
 A / DEG                     0.00000000   109.47000000   109.46840091     0.00000037     0.00023257
 T / DEG                     0.00000000   120.00000000   120.01179369    -0.00000177     0.00014996
 Convergence:                0.00000000  (line search)     0.00565722     0.01088032  (total)

 Freezing grid

 Optimization point 2

 Variable                      Last           Current        Next           Gradient       Hessian

 E(KS-SCF000) / Hartree    -40.47697924   -40.47700833     0.00000000
 D / ANG                     1.09000000     1.09299165     1.09406262    -0.00538995     5.06918993
 A / DEG                   109.47000000   109.46840091   109.44530281     0.00000390     0.00022902
 T / DEG                   120.00000000   120.01179369   119.99622969     0.00000169     0.00014766
 Convergence:                0.00000000  (line search)     0.00208140     0.00286262  (total)

 Optimization point 3

 Variable                      Last           Current        Next           Gradient       Hessian

 E(KS-SCF000) / Hartree    -40.47700833   -40.47696721     0.00000000
 D / ANG                     1.09299165     1.09406262     1.09410937    -0.00003016     4.87402726
 A / DEG                   109.46840091   109.44530281   109.47895205    -0.00000814     0.00024889
 T / DEG                   120.01179369   119.99622969   120.00286856    -0.00000112     0.00014768
 Convergence:                0.00000000  (line search)     0.00060510     0.00047082  (total)

 Optimization point 4

 Variable                      Last           Current        Next           Gradient       Hessian

 E(KS-SCF000) / Hartree    -40.47696721   -40.47696053     0.00000000
 D / ANG                     1.09406262     1.09410937     1.09407307     0.00018686     5.05782385
 A / DEG                   109.44530281   109.47895205   109.48438471    -0.00000116     0.00020817
 T / DEG                   119.99622969   120.00286856   120.00359075    -0.00000010     0.00014722
 Convergence:                0.00000000  (line search)     0.00011770     0.00011912  (total)

 END OF GEOMETRY OPTIMIZATION.    TOTAL CPU:        11.5 SEC

 ITER.   ENERGY(OLD)    ENERGY(NEW)      DE          GRADMAX     GRADNORM    GRADRMS     STEPMAX     STEPLEN     STEPRMS
   1   -40.47697924   -40.47700833    -0.00002909  0.01087983  0.01088032  0.00362677  0.00565340  0.00565722  0.00188574
   2   -40.47700833   -40.47696721     0.00004112  0.00285224  0.00286262  0.00095421  0.00202383  0.00208140  0.00069380
   3   -40.47696721   -40.47696053     0.00000669  0.00046612  0.00047082  0.00015694  0.00058729  0.00060510  0.00020170
   4   -40.47696053   -40.47696348    -0.00000295  0.00009888  0.00011912  0.00003971  0.00009482  0.00011770  0.00003923

 Geometry written to block  1 of record 700


 **********************************************************************************************************************************
 DATASETS  * FILE   NREC   LENGTH (MB)   RECORD NAMES
              1      20        3.01       500      610      700      900      950      970     1000      129      960     1100   
                                          VAR    BASINP    GEOM    SYMINP    ZMAT    AOBASIS   BASIS     P2S    ABASIS      S 
                                         1400     1410     1200     1210     1080     1600     1650     1300     1700     1800   
                                           T        V       H0       H01     AOSYM     SMH    MOLCAS    ERIS     OPER     GRID   

              2       4        0.30       700     1000     1800     2100   
                                         GEOM     BASIS    GRID      RKS  

 PROGRAMS   *        TOTAL      OPTG        KS       INT
 CPU TIMES  *        14.22     11.50      2.00      0.20
 REAL TIME  *        20.39 SEC
 DISK USED  *         7.91 MB      
 **********************************************************************************************************************************


 PROGRAM * HESSIAN

 Computing numerical hessian using default procedure for command KS-SCF

 Symmetry elements for unique displacements: Y  

 Using no symmetry in wavefunction calculations

 Running default procedure: KS-SCF000


 Recomputing wavefunction at reference geometry

 Numerically approximating hessian using central gradient differences

 Task list generated. Total number of displacements:     21

    5 tasks completed, CPU=    24.21 sec, Elapsed=    37.92 sec
   10 tasks completed, CPU=    48.24 sec, Elapsed=    72.69 sec
   15 tasks completed, CPU=    70.89 sec, Elapsed=    99.39 sec
   20 tasks completed, CPU=    92.96 sec, Elapsed=   121.90 sec

 Numerical KS-SCF000 hessian completed. CPU-time:    97.36 sec, Elapsed:   126.40 sec

 KS-SCF hessian saved to record  5300.2

 FREQUENCIES * CALCULATION OF HARMONIC VIBRATIONAL SPECTRA FOR KS-SCF


 Permanent Dipole Moment [debye]
   1-  3    0.002585    0.000000    0.003448

 Dipole Moment Norm    0.0043095 [debye]

 Dipole Moment Derivatives [debye/ang]
                   1             2             3             4             5             6             7             8
         1    -0.2699675     0.0000000     0.0017509     0.4920388     0.0000000     0.0801054    -0.7067514     0.0000000
         2    -0.0000000    -0.2568740    -0.0000000     0.0000000     0.5008187     0.0000000     0.0000000     0.5016493
         3     0.0046254     0.0000000    -0.2611702     0.0770837     0.0000000    -0.7982144     0.3449832     0.0000000
                   9            10            11            12            13            14            15
         1     0.3451360     0.2423272    -0.4861221    -0.2134953     0.2423272     0.4861221    -0.2134953
         2    -0.0000000    -0.4837798    -0.3728117    -0.3877623     0.4837798    -0.3728117     0.3877623
         3     0.3979691    -0.2133434    -0.3891074     0.3306940    -0.2133434     0.3891074     0.3306940

 Projecting out rotations and translations

   Low Vibration      Wavenumber
        Nr             [1/cm] 
        1                0.00
        2                0.00
        3                0.00
        4                0.00
        5                0.00
        6                0.00

     Vibration        Wavenumber
        Nr             [1/cm] 
        1             1394.18
        2             1394.39
        3             1395.33
        4             1591.57
        5             1592.36
        6             3034.97
        7             3151.97
        8             3152.32
        9             3152.64

 FREQUENCIES * CALCULATION OF NORMAL MODES FOR KS-SCF


 Atomic Coordinates

  Nr  Atom  Charge       X              Y              Z

   1   C     6.00    0.000008093    0.000000000    0.000085067
   2   H1    1.00   -0.126743728    0.000000000    2.063694510
   3   H2    1.00    1.987717702    0.000000000   -0.568738690
   4   H3    1.00   -0.930535204   -1.687907188   -0.747984753
   5   H4    1.00   -0.930535204    1.687907188   -0.747984753

 Frequencies dumped to record   5400.2

 Gradient norm at reference geometry: 0.18686D-03

 Normal Modes

                              1 A``       2 A`        3 A`        4 A`        5 A``
 Wavenumbers [cm-1]         1394.18     1394.39     1395.33     1591.57     1592.36
 Intensities [km/mol]         30.95       31.26       30.92        0.00        0.00
 Intensities [relative]       90.38       91.30       90.29        0.01        0.00
           CX1              0.00000    -0.11161     0.03142    -0.00003    -0.00000
           CY1             -0.11595    -0.00000    -0.00000    -0.00000    -0.00054
           CZ1              0.00000    -0.03143    -0.11156    -0.00048    -0.00000
           H1X2            -0.00000     0.54287    -0.11489     0.49715     0.00000
           H1Y2             0.55838     0.00000     0.00000     0.00000    -0.49532
           H1Z2             0.00000     0.01729    -0.08145     0.03027     0.00000
           H2X3            -0.00000     0.01829     0.16809     0.13800     0.00000
           H2Y3             0.55359     0.00000     0.00000    -0.00000     0.50063
           H2Z3            -0.00000     0.29789     0.44195     0.48088     0.00000
           H3X4            -0.23063     0.38441    -0.21379    -0.31740    -0.31307
           H3Y4             0.13488    -0.27436    -0.11790     0.28684     0.00055
           H3Z4            -0.18827     0.02965     0.48447    -0.25270     0.38738
           H4X5             0.23063     0.38441    -0.21379    -0.31740     0.31307
           H4Y5             0.13488     0.27436     0.11790    -0.28684     0.00055
           H4Z5             0.18827     0.02965     0.48447    -0.25270    -0.38738

                              6 A`        7 A``       8 A`        9 A` 
 Wavenumbers [cm-1]         3034.97     3151.97     3152.32     3152.64
 Intensities [km/mol]          0.00       34.24       33.90       33.61
 Intensities [relative]        0.00      100.00       99.01       98.15
           CX1              0.00014    -0.00000    -0.07693     0.03952
           CY1              0.00000    -0.08648     0.00000    -0.00000
           CZ1             -0.00006    -0.00000    -0.03952    -0.07699
           H1X2            -0.03065    -0.00000    -0.04288    -0.03620
           H1Y2            -0.00000    -0.02463     0.00000    -0.00000
           H1Z2             0.49805     0.00000     0.32853     0.75137
           H2X3             0.47737     0.00000     0.57255    -0.54618
           H2Y3             0.00000    -0.02462     0.00000    -0.00000
           H2Z3            -0.13673    -0.00000    -0.18147     0.13788
           H3X4            -0.22419     0.31120     0.19353     0.05573
           H3Y4            -0.40683     0.53987     0.39058     0.08087
           H3Z4            -0.18029     0.25018     0.16193     0.01410
           H4X5            -0.22419    -0.31120     0.19353     0.05573
           H4Y5             0.40683     0.53987    -0.39058    -0.08087
           H4Z5            -0.18029    -0.25018     0.16193     0.01410


 Normal Modes of low/zero frequencies

                                  1           2           3           4           5
 Wavenumbers [cm-1]            0.00        0.00        0.00        0.00        0.00
 Intensities [km/mol]          0.00        0.00        0.00        0.00        0.00
 Intensities [relative]        0.00        0.00        0.00        0.00        0.00
           CX1              0.02196     0.00073    -0.01481     0.00091    -0.08259
           CY1              0.00277    -0.01384     0.08244     0.04531     0.21613
           CZ1              0.16863    -0.06976     0.08464     0.13365    -0.05555
           H1X2             0.45262     0.25280    -0.26473    -0.19207     0.06531
           H1Y2            -0.09506     0.48550     0.13353     0.37358     0.16437
           H1Z2             0.19508    -0.05428     0.06929     0.12179    -0.04646
           H2X3            -0.09675    -0.06876     0.05408     0.05410    -0.12336
           H2Y3             0.09230    -0.02064     0.50973    -0.37408     0.14172
           H2Z3            -0.24620    -0.31257     0.32537     0.31952    -0.19801
           H3X4            -0.08009     0.02244     0.45730    -0.21343    -0.21286
           H3Y4             0.00696    -0.26028    -0.15679     0.09079     0.27924
           H3Z4             0.28612     0.45928     0.03716     0.29767    -0.03590
           H4X5            -0.18823    -0.20374    -0.30572     0.35516    -0.05956
           H4Y5             0.00696    -0.26028    -0.15679     0.09079     0.27924
           H4Z5             0.43953    -0.37147    -0.09328    -0.20441     0.05819

                                  6
 Wavenumbers [cm-1]            0.00
 Intensities [km/mol]          0.00
 Intensities [relative]        0.00
           CX1              0.23411
           CY1              0.08107
           CZ1             -0.03036
           H1X2             0.23012
           H1Y2             0.07239
           H1Z2            -0.03060
           H2X3             0.23521
           H2Y3             0.07509
           H2Z3            -0.02651
           H3X4             0.22833
           H3Y4             0.08840
           H3Z4            -0.03970
           H4X5             0.24279
           H4Y5             0.08840
           H4Z5            -0.02462


 Zero point energy:  0.04524379 [H]     9929.86 [1/CM]      118.79 [KJ/MOL]
 Frequency information read from record  5400.2

 Dump information in style MOLDEN to ch4_6-31++g.molpro                                                              

 Molecular orbitals read from record     2101.2  Type=RKS/CANONICAL (state 1.1)
 Occupation numbers read from record     2101.2  Type=RKS/RHF (state 1.1)
 Orbital energies read from record       2101.2  Type=RKS/CANONICAL (state 1.1)
 Redundancy group numbers read from rec  2101.2  Type=RKS/RHF (state 1.1)

 DUMP ORBITAL  1.1 AS ORBITAL    1  occ=    2.0000  eig=  -10.1621  GROUP=   2
 DUMP ORBITAL  2.1 AS ORBITAL    2  occ=    2.0000  eig=   -0.6951  GROUP=   2
 DUMP ORBITAL  3.1 AS ORBITAL    3  occ=    2.0000  eig=   -0.3921  GROUP=   2
 DUMP ORBITAL  4.1 AS ORBITAL    4  occ=    2.0000  eig=   -0.3921  GROUP=   2
 DUMP ORBITAL  5.1 AS ORBITAL    5  occ=    2.0000  eig=   -0.3920  GROUP=   2

 Total charge:      10.000000
 Frequency information read from record  5400.2

 **********************************************************************************************************************************

        KS-SCF          KS-SCF          KS-SCF          KS-SCF          KS-SCF          KS-SCF          KS-SCF          KS-SCF  
    -40.47702223    -40.47701758    -40.47701822    -40.47701018    -40.47700961    -40.47701679    -40.47701686    -40.47701918
 **********************************************************************************************************************************
 Variable memory released
