
 Primary working directories    : /data/scratch
 Secondary working directories  : /data/scratch
 Wavefunction directory         : /home/ospite/wfu/
 Main file repository           : /data/scratch/

 ARCHNAME  : Linux/x86_64
 FC        : /usr/bin/gfortran
 FCVERSION : 4.8.5
 BLASLIB   : 
 id        : polimi

 Nodes     nprocs
 molmod       1

 Using default tuning parameters: mindgm=1; mindgv=20; mindgc=4; mindgr=1; noblas=0; mincuda=1000; minvec=7
 default implementation of scratch files=df  

 ***,methane with imposed symmetry and aug-cc-pVDZ basis set
 memory,100,m
 
 basis=aug-cc-pVDZ
 symmetry,y
 
 geometry={angstrom
 C
 H1, C, d
 H2, C, d, H1, a
 H3, C, d, H1, a, H2, t
 H4, C, d, H1, a, H2, -t
 }
 
 d=1.09 Ang
 a=109.47 Deg
 t=120.0 Deg
 
 {dfunc,b3lyp}
 ks
 optg
 frequencies
 put,molden,ch4_aug-ccpVDZ.molpro

 Variables initialized (661), CPU time= 0.01 sec
 Commands  initialized (458), CPU time= 0.05 sec, 486 directives.
 Default parameters read. Elapsed time= 0.19 sec

 Checking input...
 Passed
1


                                         ***  PROGRAM SYSTEM MOLPRO  ***
                         Copyright, University College Cardiff Consultants Limited, 2008

                                    Version 2010.1 linked Mar  6 2018 16:01:50


 **********************************************************************************************************************************
 LABEL *   methane with imposed symmetry and aug-cc-pVDZ basis set                       
 Linux-3.10.0-1160.108.1.el7.x86_64/molmod(x86_64) 64 bit serial version                 DATE: 17-Aug-24          TIME: 17:07:22  
 **********************************************************************************************************************************

 SHA1:             d90fb18d49a3be29a79769f900c595ef3b8176e2
 **********************************************************************************************************************************

 Variable memory set to  100000000 words,  buffer space   230000 words

 SETTING BASIS          =    AUG-CC-PVDZ
 ZSYMEL=Y  

 SETTING D              =         1.09000000  ANG                             
 SETTING A              =       109.47000000  DEG                             
 SETTING T              =       120.00000000  DEG                             


 Recomputing integrals since basis changed


 Using spherical harmonics

 Library entry C      S aug-cc-pVDZ          selected for orbital group  1
 Library entry C      P aug-cc-pVDZ          selected for orbital group  1
 Library entry C      D aug-cc-pVDZ          selected for orbital group  1
 Library entry H      S aug-cc-pVDZ          selected for orbital group  2
 Library entry H      P aug-cc-pVDZ          selected for orbital group  2

1PROGRAM * SEWARD (Integral evaluation for generally contracted gaussian basis sets)     Author: Roland Lindh, 1990

 Geometry written to block  1 of record 700

 Orientation using atomic masses  
 Molecule type: Symmetric top,     Order of principal axis = 3
 User-specified symmetry elements: Y
 Symmetry elements: Y
 Rotational constants:     158.2574080    158.2574080    158.2538321 GHz  (calculated with average atomic masses)

 Point group  Cs  



 ATOMIC COORDINATES

 NR  ATOM    CHARGE       X              Y              Z

   1  C       6.00   -0.000000000    0.000000000   -0.000007798
   2  H1      1.00   -0.000000000    0.000000000    2.059793685
   3  H2      1.00    1.942014089    0.000000000   -0.686566920
   4  H3      1.00   -0.971007045   -1.681833536   -0.686566920
   5  H4      1.00   -0.971007045    1.681833536   -0.686566920

 Bond lengths in Bohr (Angstrom)

 1-2  2.059801483  1-3  2.059801483  1-4  2.059801483  1-5  2.059801483
     ( 1.090000000)     ( 1.090000000)     ( 1.090000000)     ( 1.090000000)

 Bond angles

  2-1-3  109.47000000   2-1-4  109.47000000   2-1-5  109.47000000   3-1-4  109.47244124

  3-1-5  109.47244124   4-1-5  109.47244124

 NUCLEAR CHARGE:                   10
 NUMBER OF PRIMITIVE AOS:          81
 NUMBER OF SYMMETRY AOS:           79
 NUMBER OF CONTRACTIONS:           59   (  39A'  +  20A"  )
 NUMBER OF CORE ORBITALS:           1   (   1A'  +   0A"  )
 NUMBER OF VALENCE ORBITALS:        8   (   6A'  +   2A"  )


 NUCLEAR REPULSION ENERGY   13.43538921


 Eigenvalues of metric

         1 0.834E-03 0.834E-03 0.985E-03 0.744E-02 0.755E-02 0.755E-02 0.191E-01 0.201E-01
         2 0.834E-03 0.755E-02 0.191E-01 0.201E-01 0.497E-01 0.823E-01 0.147E+00 0.148E+00


 Contracted 2-electron integrals neglected if value below      1.0D-11
 AO integral compression algorithm  1   Integral accuracy      1.0D-11

     5.505 MB (compressed) written to integral file ( 57.4%)


 NUMBER OF SORTED TWO-ELECTRON INTEGRALS:     818145.     BUFFER LENGTH:  32768
 NUMBER OF SEGMENTS:   1  SEGMENT LENGTH:     818145      RECORD LENGTH: 524288

 Memory used in sort:       1.38 MW

 SORT1 READ     1152246. AND WROTE      754747. INTEGRALS IN      3 RECORDS. CPU TIME:     0.05 SEC, REAL TIME:     0.05 SEC
 SORT2 READ      754747. AND WROTE      818145. INTEGRALS IN     21 RECORDS. CPU TIME:     0.23 SEC, REAL TIME:     0.24 SEC

 FILE SIZES:   FILE 1:     8.2 MBYTE,  FILE 4:    12.6 MBYTE,   TOTAL:     20.8 MBYTE

 OPERATOR DM      FOR CENTER  0  COORDINATES:    0.000000    0.000000    0.000000


 **********************************************************************************************************************************
 DATASETS  * FILE   NREC   LENGTH (MB)   RECORD NAMES
              1      19        6.51       500      610      700      900      950      970     1000      129      960     1100   
                                          VAR    BASINP    GEOM    SYMINP    ZMAT    AOBASIS   BASIS     P2S    ABASIS      S 
                                         1400     1410     1200     1210     1080     1600     1650     1300     1700   
                                           T        V       H0       H01     AOSYM     SMH    MOLCAS    ERIS     OPER   

 PROGRAMS   *        TOTAL       INT
 CPU TIMES  *         1.09      0.60
 REAL TIME  *         1.32 SEC
 DISK USED  *        21.33 MB      
 **********************************************************************************************************************************

 Density functional group B3LYP=B88+DIRAC+LYP+VWN5
 Functional: B88(Automatically generated B88)                                  Gradient terms: 1
 Functional: DIRAC(Automatically generated DIRAC)                              Gradient terms: 0
 Functional: LYP(Lee-Yang-Parr gradient-corrected correlation energy (1988))   Gradient terms: 1
 Functional: VWN5(Automatically generated VWN5)                                Gradient terms: 0
 Use grid at  1800.2


 Exact exchange will be calculated, factor:  0.2000

 Functional: B88                       Factor:  0.7200
 Functional: DIRAC                     Factor:  0.0800
 Functional: LYP                       Factor:  0.8100
 Functional: VWN5                      Factor:  0.1900

 Generated new metagrid on record  1800.2 with target accuracy 1.0D-06 and 7496 points in CPU time    0.3
 Computed new grid on record 1800.1 in CPU time    0.3
   50797 words reserved for DFT integration

 PROGRAM * RKS-SCF (Restricted closed shell Kohn-Sham)     Authors: W. Meyer, H.-J. Werner, P.J. Knowles, 1993

 NUMBER OF ELECTRONS:       5+    5-
 CONVERGENCE THRESHOLDS:    1.00E-05 (Density)    1.00E-06 (Energy)
 MAX. NUMBER OF ITERATIONS:       60
 INTERPOLATION TYPE:            DIIS
 INTERPOLATION STEPS:              2 (START)      1 (STEP)
 LEVEL SHIFTS:                  0.00 (CLOSED)  0.00 (OPEN) 



 Use fine grid record 1800.2 for energy threshold 1.0D-06
 Orbital guess generated from atomic densities. Full valence occupancy:    7   2

 Molecular orbital dump at record        2100.2

 Initial alpha occupancy:   4   1
 Initial beta  occupancy:   4   1
 Wave function symmetry:    1

 ITERATION    DDIFF          GRAD             ENERGY        2-EL.EN.            DIPOLE MOMENTS         DIIS
    1      0.000D+00      0.000D+00       -40.40987205     66.241147   -0.00011    0.00000   -0.00006    0
    2      0.000D+00      0.167D-01       -40.38191683     59.000465   -0.00023    0.00000    0.00010    1
    3      0.533D-01      0.191D-01       -40.48449723     62.886183   -0.00021    0.00000   -0.00006    2
    4      0.276D-01      0.238D-03       -40.48451860     62.826797   -0.00021    0.00000   -0.00005    3
    5      0.709D-03      0.421D-04       -40.48451907     62.834733   -0.00022    0.00000   -0.00006    4
    6      0.752D-04      0.204D-05       -40.48451907     62.835027   -0.00022    0.00000   -0.00006    5
    7      0.461D-05      0.903D-07       -40.48451907     62.835054   -0.00022    0.00000   -0.00006    0

 Final occupancy:   4   1

 !RKS STATE 1.1 Energy                -40.484519068486
 Nuclear energy                        13.43538921
 One-electron energy                  -79.78683248
 Two-electron energy                   31.41752690
 SCF exchange energy                   -6.57527160     Factor=0.2000
 Density functional                    -5.55060270     B88=-6.56783986 DIRAC=-5.88476957 LYP=-0.29427075 VWN5=-0.59272173
 Virial quotient                       -1.00830940
 !RKS STATE 1.1 Dipole moment          -0.00021674     0.00000000    -0.00005801
 Dipole moment /Debye                  -0.00055085     0.00000000    -0.00014745

 Orbital energies:

         1.1          2.1          3.1          4.1          5.1          6.1
    -10.166551    -0.694217    -0.391196    -0.391185    -0.004153     0.032806

         1.2          2.2          3.2
     -0.391188     0.034228     0.098791


 **********************************************************************************************************************************
 DATASETS  * FILE   NREC   LENGTH (MB)   RECORD NAMES
              1      20        6.75       500      610      700      900      950      970     1000      129      960     1100   
                                          VAR    BASINP    GEOM    SYMINP    ZMAT    AOBASIS   BASIS     P2S    ABASIS      S 
                                         1400     1410     1200     1210     1080     1600     1650     1300     1700     1800   
                                           T        V       H0       H01     AOSYM     SMH    MOLCAS    ERIS     OPER     GRID   

              2       4        0.34       700     1000     1800     2100   
                                         GEOM     BASIS    GRID      RKS  

 PROGRAMS   *        TOTAL        KS       INT
 CPU TIMES  *         4.58      3.48      0.60
 REAL TIME  *         5.10 SEC
 DISK USED  *        21.33 MB      
 **********************************************************************************************************************************


 PROGRAM * OPT (Geometry optimization)     Authors: F. Eckert and H.-J. Werner


 BFGS update of hessian

 *** Long output written to logfile /home/ospite/Desktop/MMfP/Project6/CH4/molpro/DFT/ch4_aug-ccpVDZ.log ***


 Geometry optimization using default procedure for command KS-SCF

 Geometry written to block  1 of record 700

 Making model hessian for Z-matrix coordinates

 Quadratic Steepest Descent - Minimum Search

 Optimization point 1

 Variable                      Last           Current        Next           Gradient       Hessian

 E(KS-SCF000) / Hartree      0.00000000   -40.48451907     0.00000000
 D / ANG                     0.00000000     1.09000000     1.09531121    -0.03650090     6.87242182
 A / DEG                     0.00000000   109.47000000   109.46725097     0.00000064     0.00023257
 T / DEG                     0.00000000   120.00000000   120.01352413    -0.00000203     0.00014996
 Convergence:                0.00000000  (line search)     0.01003963     0.01931583  (total)

 Optimization point 2

 Variable                      Last           Current        Next           Gradient       Hessian

 E(KS-SCF000) / Hartree    -40.48451907   -40.48462806     0.00000000
 D / ANG                     1.09000000     1.09531121     1.09715868    -0.00941279     5.09980654
 A / DEG                   109.47000000   109.46725097   109.45306472     0.00000238     0.00022585
 T / DEG                   120.00000000   120.01352413   120.00239509     0.00000119     0.00014556
 Convergence:                0.00000000  (line search)     0.00350536     0.00498337  (total)

 Freezing grid

 Optimization point 3

 Variable                      Last           Current        Next           Gradient       Hessian

 E(KS-SCF000) / Hartree    -40.48462806   -40.48462631     0.00000000
 D / ANG                     1.09531121     1.09715868     1.09719136    -0.00011246     5.02513052
 A / DEG                   109.46725097   109.45306472   109.45388766    -0.00000021     0.00022355
 T / DEG                   120.01352413   120.00239509   120.02987794    -0.00000394     0.00014553
 Convergence:                0.00000000  (line search)     0.00048384     0.00023368  (total)

 Optimization point 4

 Variable                      Last           Current        Next           Gradient       Hessian

 E(KS-SCF000) / Hartree    -40.48462631   -40.48466892     0.00000000
 D / ANG                     1.09715868     1.09719136     1.09716665     0.00017197     5.38581970
 A / DEG                   109.45306472   109.45388766   109.45070790     0.00000111     0.00023338
 T / DEG                   120.00239509   120.02987794   120.02173882     0.00000190     0.00020669
 Convergence:                0.00000000  (line search)     0.00015950     0.00015555  (total)

 END OF GEOMETRY OPTIMIZATION.    TOTAL CPU:        22.0 SEC

 ITER.   ENERGY(OLD)    ENERGY(NEW)      DE          GRADMAX     GRADNORM    GRADRMS     STEPMAX     STEPLEN     STEPRMS
   1   -40.48451907   -40.48462806    -0.00010899  0.01931545  0.01931583  0.00643861  0.01003674  0.01003963  0.00334654
   2   -40.48462806   -40.48462631     0.00000174  0.00498103  0.00498337  0.00166112  0.00349120  0.00350536  0.00116845
   3   -40.48462631   -40.48466892    -0.00004260  0.00022565  0.00023368  0.00007789  0.00047967  0.00048384  0.00016128
   4   -40.48466892   -40.48465748     0.00001143  0.00010888  0.00015555  0.00005185  0.00014205  0.00015950  0.00005317

 Geometry written to block  1 of record 700


 **********************************************************************************************************************************
 DATASETS  * FILE   NREC   LENGTH (MB)   RECORD NAMES
              1      20        6.91       500      610      700      900      950      970     1000      129      960     1100   
                                          VAR    BASINP    GEOM    SYMINP    ZMAT    AOBASIS   BASIS     P2S    ABASIS      S 
                                         1400     1410     1200     1210     1080     1600     1650     1300     1700     1800   
                                           T        V       H0       H01     AOSYM     SMH    MOLCAS    ERIS     OPER     GRID   

              2       4        0.34       700     1000     1800     2100   
                                         GEOM     BASIS    GRID      RKS  

 PROGRAMS   *        TOTAL      OPTG        KS       INT
 CPU TIMES  *        26.63     22.04      3.48      0.60
 REAL TIME  *        28.65 SEC
 DISK USED  *        21.67 MB      
 **********************************************************************************************************************************


 PROGRAM * HESSIAN

 Computing numerical hessian using default procedure for command KS-SCF

 Symmetry elements for unique displacements: Y  

 Using no symmetry in wavefunction calculations

 Running default procedure: KS-SCF000


 Recomputing wavefunction at reference geometry

 Numerically approximating hessian using central gradient differences

 Task list generated. Total number of displacements:     21

    5 tasks completed, CPU=    52.67 sec, Elapsed=    53.49 sec
   10 tasks completed, CPU=   105.49 sec, Elapsed=   107.15 sec
   15 tasks completed, CPU=   157.89 sec, Elapsed=   160.72 sec
   20 tasks completed, CPU=   210.60 sec, Elapsed=   214.25 sec

 Numerical KS-SCF000 hessian completed. CPU-time:   221.10 sec, Elapsed:   224.90 sec

 KS-SCF hessian saved to record  5300.2

 FREQUENCIES * CALCULATION OF HARMONIC VIBRATIONAL SPECTRA FOR KS-SCF


 Permanent Dipole Moment [debye]
   1-  3   -0.000023    0.000000    0.000654

 Dipole Moment Norm    0.0006541 [debye]

 Dipole Moment Derivatives [debye/ang]
                   1             2             3             4             5             6             7             8
         1     0.0741074     0.0000000    -0.0016963     0.2778975     0.0000000    -0.1192460    -0.4525403     0.0000000
         2    -0.0000000     0.0718408     0.0000000    -0.0000000     0.2931195     0.0000000     0.0000000     0.2958774
         3     0.0032015     0.0000000     0.0671911    -0.1219468     0.0000000    -0.6253109     0.3764838     0.0000000
                   9            10            11            12            13            14            15
         1     0.3765708     0.0502568    -0.3908905    -0.1278157     0.0502568     0.3908905    -0.1278157
         2    -0.0000000    -0.3917509    -0.3304343    -0.2060098     0.3917509    -0.3304343     0.2060098
         3     0.1057566    -0.1288645    -0.2073806     0.2261603    -0.1288645     0.2073806     0.2261603

 Projecting out rotations and translations

   Low Vibration      Wavenumber
        Nr             [1/cm] 
        1                0.00
        2                0.00
        3                0.00
        4                0.00
        5                0.00
        6                0.00

     Vibration        Wavenumber
        Nr             [1/cm] 
        1             1301.24
        2             1301.81
        3             1302.61
        4             1520.34
        5             1520.65
        6             3024.98
        7             3140.75
        8             3140.99
        9             3141.37

 FREQUENCIES * CALCULATION OF NORMAL MODES FOR KS-SCF


 Atomic Coordinates

  Nr  Atom  Charge       X              Y              Z

   1   C     6.00    0.000063426    0.000000000   -0.000141044
   2   H1    1.00    0.261599111    0.000000000    2.056641988
   3   H2    1.00    1.852372116    0.000000000   -0.931650502
   4   H3    1.00   -1.057363518   -1.692721853   -0.561655374
   5   H4    1.00   -1.057363518    1.692721853   -0.561655374

 Frequencies dumped to record   5400.2

 Gradient norm at reference geometry: 0.17198D-03

 Normal Modes

                              1 A``       2 A`        3 A`        4 A``       5 A` 
 Wavenumbers [cm-1]         1301.24     1301.81     1302.61     1520.34     1520.65
 Intensities [km/mol]         10.62       10.65       10.58        0.00        0.00
 Intensities [relative]       47.75       47.85       47.55        0.01        0.00
           CX1              0.00000    -0.05937    -0.09847     0.00000    -0.00005
           CY1             -0.11501     0.00000    -0.00000    -0.00060     0.00000
           CZ1             -0.00000    -0.09849     0.05940    -0.00000    -0.00017
           H1X2            -0.00000     0.21235     0.50922    -0.00000     0.49425
           H1Y2             0.55860    -0.00000     0.00000    -0.49525    -0.00000
           H1Z2             0.00000    -0.10511    -0.03036     0.00000    -0.06319
           H2X3             0.00000     0.24312    -0.09426    -0.00000     0.22424
           H2Y3             0.55371    -0.00000     0.00000     0.50081     0.00000
           H2Z3             0.00000     0.49778     0.00030    -0.00000     0.44552
           H3X4            -0.26546     0.12602     0.37922    -0.23526    -0.35896
           H3Y4             0.12910    -0.25961    -0.15514     0.00079     0.28729
           H3Z4            -0.14419     0.39047    -0.33888     0.43894    -0.19013
           H4X5             0.26546     0.12602     0.37922     0.23526    -0.35896
           H4Y5             0.12910     0.25961     0.15514     0.00079    -0.28729
           H4Z5             0.14419     0.39047    -0.33888    -0.43894    -0.19013

                              6 A`        7 A`        8 A``       9 A` 
 Wavenumbers [cm-1]         3024.98     3140.75     3140.99     3141.37
 Intensities [km/mol]          0.00       22.08       22.25       22.21
 Intensities [relative]        0.00       99.24      100.00       99.81
           CX1              0.00003    -0.01112    -0.00000    -0.08705
           CY1              0.00000     0.00000    -0.08772     0.00000
           CZ1             -0.00014    -0.08702    -0.00000     0.01110
           H1X2             0.06305     0.10367     0.00000    -0.01857
           H1Y2            -0.00000     0.00000    -0.01869     0.00000
           H1Z2             0.49493     0.81421     0.00000     0.00227
           H2X3             0.44433    -0.25265     0.00000     0.68930
           H2Y3             0.00000     0.00000    -0.01856     0.00000
           H2Z3            -0.22344     0.10760    -0.00000    -0.35365
           H3X4            -0.25390     0.14076     0.34975     0.18332
           H3Y4            -0.40650     0.22919     0.54131     0.32294
           H3Z4            -0.13493     0.05757     0.18581     0.10955
           H4X5            -0.25390     0.14076    -0.34975     0.18332
           H4Y5             0.40650    -0.22919     0.54131    -0.32294
           H4Z5            -0.13493     0.05757    -0.18581     0.10955


 Normal Modes of low/zero frequencies

                                  1           2           3           4           5
 Wavenumbers [cm-1]            0.00        0.00        0.00        0.00        0.00
 Intensities [km/mol]          0.00        0.00        0.00        0.00        0.00
 Intensities [relative]        0.00        0.00        0.00        0.00        0.00
           CX1             -0.12722    -0.00538     0.00804     0.01479    -0.00386
           CY1              0.21168     0.00860     0.01356    -0.01803     0.02743
           CZ1             -0.02521     0.08123     0.17624    -0.00597     0.15407
           H1X2            -0.07168    -0.30877     0.33795     0.36598    -0.20024
           H1Y2             0.20560     0.14738     0.28274    -0.37065    -0.36758
           H1Z2            -0.03227     0.11981     0.13428    -0.05063     0.17904
           H2X3            -0.15237     0.13202    -0.14137    -0.14426     0.08508
           H2Y3             0.24438     0.40385    -0.11940     0.42457    -0.00605
           H2Z3            -0.07523     0.35446    -0.12088    -0.32225     0.33092
           H3X4            -0.11665     0.47092    -0.09151     0.16191    -0.13265
           H3Y4             0.19835    -0.25849    -0.05441    -0.06331     0.24152
           H3Z4            -0.00493    -0.01056     0.56859    -0.14651    -0.24879
           H4X5            -0.16811    -0.31603    -0.07254    -0.32407     0.23216
           H4Y5             0.19835    -0.25849    -0.05441    -0.06331     0.24152
           H4Z5             0.01161    -0.13892     0.12310     0.49568     0.35500

                                  6
 Wavenumbers [cm-1]            0.00
 Intensities [km/mol]          0.00
 Intensities [relative]        0.00
           CX1              0.21406
           CY1              0.12725
           CZ1             -0.01637
           H1X2             0.19912
           H1Y2             0.13427
           H1Z2            -0.01448
           H2X3             0.22082
           H2Y3             0.13042
           H2Z3            -0.00292
           H3X4             0.22359
           H3Y4             0.12215
           H3Z4            -0.01897
           H4X5             0.21268
           H4Y5             0.12215
           H4Z5            -0.02914


 Zero point energy:  0.04418445 [H]     9697.37 [1/CM]      116.01 [KJ/MOL]
 Frequency information read from record  5400.2

 Dump information in style MOLDEN to ch4_aug-ccpvdz.molpro                                                           

 Molecular orbitals read from record     2101.2  Type=RKS/CANONICAL (state 1.1)
 Occupation numbers read from record     2101.2  Type=RKS/RHF (state 1.1)
 Orbital energies read from record       2101.2  Type=RKS/CANONICAL (state 1.1)
 Redundancy group numbers read from rec  2101.2  Type=RKS/RHF (state 1.1)

 DUMP ORBITAL  1.1 AS ORBITAL    1  occ=    2.0000  eig=  -10.1695  GROUP=   2
 DUMP ORBITAL  2.1 AS ORBITAL    2  occ=    2.0000  eig=   -0.6920  GROUP=   2
 DUMP ORBITAL  3.1 AS ORBITAL    3  occ=    2.0000  eig=   -0.3901  GROUP=   2
 DUMP ORBITAL  4.1 AS ORBITAL    4  occ=    2.0000  eig=   -0.3900  GROUP=   2
 DUMP ORBITAL  5.1 AS ORBITAL    5  occ=    2.0000  eig=   -0.3899  GROUP=   2

 Total charge:      10.000000
 Frequency information read from record  5400.2

 **********************************************************************************************************************************

        KS-SCF          KS-SCF          KS-SCF          KS-SCF          KS-SCF          KS-SCF          KS-SCF          KS-SCF  
    -40.48466414    -40.48466115    -40.48466067    -40.48465224    -40.48465172    -40.48465782    -40.48465838    -40.48465957
 **********************************************************************************************************************************
 Variable memory released
