[Molden Format]
[Molpro variables]
_NUMVAR=  693.0000000000000    
_EV2006= 0.3674930886769165E-01
_EV= 0.3674932534394180E-01
_KJOULE= 0.3808798324128737E-03
_KJOULE/MOL= 0.3808798324128737E-03
_CM= 0.4556335267302901E-05
_CM-1= 0.4556335267302901E-05
_KCAL= 0.1593601117815568E-02
_KCAL/MOL= 0.1593601117815568E-02
_KELVIN2006= 0.3166828861084835E-05
_KELVIN= 0.3166814820820034E-05
_HERTZ2006= 0.1519829850815779E-15
_HERTZ= 0.1519829846011223E-15
_HZ2006= 0.1519829850815779E-15
_HZ= 0.1519829846011223E-15
_TOA2006= 0.5291772490000000    
_TOA= 0.5291772090000000    
_TOANG2006= 0.5291772490000000    
_TOANG= 0.5291772090000000    
_TORAD= 0.1745329251994330E-01
_TOCM=  219474.6306700000    
_TODEBYE=  2.541580000000000    
_TOEV2006=  27.21139610000000    
_TOEV=  27.21138390000000    
_TOHERTZ2006=  6579683899900000.    
_TOHERTZ=  6579683920700000.    
_TOHZ2006=  6579683899900000.    
_TOHZ=  6579683920700000.    
_TOK2006=  315773.3000000000    
_TOK=  315774.7000000000    
_TOKCAL=  627.5096000000000    
_TOKELVIN2006=  315773.3000000000    
_TOKELVIN=  315774.7000000000    
_TOKJ=  2625.500000000000    
_TOKJOULE=  2625.500000000000    
_ANG2006=  1.889725988578923    
_ANG=  1.889726131421507    
_ANGSTROM2006=  1.889725988578923    
_ANGSTROM=  1.889726131421507    
_IGNORE_UNDEF=  2.000000000000000    
_STRICTCHECK=  0.000000000000000    
_SEW_ONEEL=  0.000000000000000    
_CPPDONE=FALSE
_DKROLL_DONE=  0.000000000000000    
_FOCKDONE=TRUE
_GRADONE=FALSE
_HESSDONE=TRUE
_INTDONE=TRUE
_SCFDONE=TRUE
_MODUL_CUDA=FALSE
_MODUL_SLATER=FALSE
_MODUL_MRCC=FALSE
_MRCC_EXEC=
_FITC_AO_SAVED=FALSE
_FITC_MO_SAVED=FALSE
_SHARED_FS=TRUE
_LSTYP=SEWARD
_INTYP=INTS
_GEOMTYP=ZMAT
_GRADTYP=ALASKA
_DIRECT=FALSE
_SYNCM=  0.000000000000000    
_DFTNAME=B3LYP
_DFTFUNC=B88
_BASIS=6-31++G
_ZSYMEL=
_ZORIENT=  1.000000000000000    
_NELEC=  10.00000000000000    
!SPIN=  0.000000000000000    
_OPTCONV= 0.1177031767708050E-03
_QSDSTEP=  0.000000000000000    
_QSDIRC=  0.000000000000000    
_PROGRAM=FREQ
_CPUSTEP=  0.000000000000000    
_SYSSTEP=  0.000000000000000    
_WALLSTEP=  0.000000000000000    
!DFSCF=  0.000000000000000    
!SCSGRD=  0.000000000000000    
_BASINP=  610.0000000000000    
_CPUTOT=  110.7500000000000    
_CPUSORT= 0.6999999999999318E-01
_SYSSORT=  0.000000000000000    
_WALLSORT= 0.8000000007450581E-01
_DFTEXFAC= 0.2000000000000000    
_DFTFAC= 0.7200000000000000    
_DFTFUN= -5.545031418289913    
_DFTFUNS= -6.561412563015389    
_DMX= 0.1829294129131707E-02
_DMY= 0.2400907489312487E-11
_DMZ= 0.2146387501686965E-02
_FREQUENCIES= 0.3127971037805906E-04
_ENERGY= -40.47702223053992    
_ENUC=  13.38537125522431    
_FREQSTEP=  22.00000000000000    
_GRADENERG= -40.47701757652018    
_GRADEXFAC= 0.2000000000000000    
_GRADMETHOD=  1.000000000000000    
_VIRIAL= 0.2715846233018893E-02
_GRID=  1800.200000000000    
!GRID_FREEZE= -1.000000000000000    
_GRID_SPARSITY= 0.3703703703703543E-03
_GRID_RMAX=  6.419324513486362    
_ITERATIONS=  5.000000000000000    
_LASTNELEC=  10.00000000000000    
_LASTSPIN=  0.000000000000000    
_LASTSYM=  1.000000000000000    
_MPP_PROG=  0.000000000000000    
_NGRID=  13634.00000000000    
_NPROC_MPP=  1.000000000000000    
_NPROC_SMP=  1.000000000000000    
_NUMSTEP=  0.000000000000000    
_OPTCONVMX= 0.9481791318581127E-04
_OPTCONVRMS= 0.3923439225693500E-04
_OPTGRAD= 0.1191219940061018E-03
_OPTGRADMX= 0.9888080438045785E-04
_OPTGRADRMS= 0.3970733133536725E-04
_OPTSTEP=  4.000000000000000    
_ORBITAL=  2101.200000000000    
_PI=  3.141592653589793    
_SEIG_MIN= 0.4413216914350305E-02
_SEWPROP=TRUE
_STATUS=  1.000000000000000    
_SYSTOT=  6.650000000000000    
_VERSION=  2010001.000000000    
_WALLTOT=  151.7600000000000    
_ZPE= 0.4524379407964559E-01
_DATE=17-Aug-24
_LASTORB=RKS
_MACHINE=Linux-3.10.0-1160.108.1.el7.x86_64/molmod(x86_64) 64 bit serial version
_OUTPUT=/home/ospite/Desktop/MMfP/Project6/CH4/molpro/DFT/ch4_++.xml
_PGROUP=C1
_TIME=17:04:38
_LIBMOL=/usr/local/molpro/molpros_2010_1_Linux_x86_64_i8/lib/
!SURFREC=  0.000000000000000    
!POLYREC=  0.000000000000000    
!DIPREC=  0.000000000000000    
!VSCFREC=  0.000000000000000    
!VCIREC=  0.000000000000000    
!PVCIREC=  0.000000000000000    
!VMP2REC=  0.000000000000000    
!VMCSCFREC=  0.000000000000000    
!GAREC=  0.000000000000000    
!SCFORB=  21002.00000000000    
!NEWMOL=  0.000000000000000    
!NEWSYM=  0.000000000000000    
_SLFILES=slscratch
_NGSSTO=  9.000000000000000    
_SIN=SIN
_COS=COS
_TAN=TAN
_ACOS=ACOS
_ASIN=ASIN
_ATAN=ATAN
_COSH=COSH
_SINH=SINH
_TANH=TANH
_ABS=ABS
_MOD=MOD
_ERF=ERF
_REFC=REFC
_ERFC=ERFC
_HYPOT=HYPOT
_J0=J0
_J1=J1
_JN=JN
_GAMMA=GAMMA
_LGAMMA=LGAMMA
_Y0=Y0
_Y1=Y1
_YN=YN
_EXP=EXP
_LOG=LOG
_LOG10=LOG10
_SQRT=SQRT
_INT=INT
_NINT=NINT
_MAX=MAX
_MIN=MIN
_COSMO=  0.000000000000000    
_COSMOIT=  0.000000000000000    
_COSMOES=  0.000000000000000    
_COSMOEDS=  0.000000000000000    
_COSMOEC=  0.000000000000000    
_COSMOEDCORR=  0.000000000000000    
_FEPSI=  1.000000000000000    
_SL_IsMM=  0.000000000000000    
_SL_NSYM=  0.000000000000000    
_SL_System_BitSw=  0.000000000000000    
_SL_Unique_atoms=  0.000000000000000    
_SL_GRAD=  0.000000000000000    
_SL_MAXUPD_Hess=  5.000000000000000    
_SL_N_PRINT_COD=  5.000000000000000    
_SL_PRINT_CODES=  0.000000000000000    
_SL_BasType=  0.000000000000000    
_SL_Energy_Pred=  0.000000000000000    
_SL_New_Coords=  0.000000000000000    
_SL_Total_Nuclea=  0.000000000000000    
_SL_Highest_Mltp=  0.000000000000000    
_SL_Ref_Geom=  0.000000000000000    
!LATTICE= -1.000000000000000    
!NEWLATTICE=  0.000000000000000    
!LATGRAD_VAR=FALSE
!SEW_LATTICE=  1.000000000000000    
!LOCAL=  0.000000000000000    
!SAVEOCC=  0.000000000000000    
!SAVEDOM= -1.000000000000000    
!RESTDOM= -1.000000000000000    
!SAVEDOM_HF= -1.000000000000000    
!RESTDOM_HF= -1.000000000000000    
!HESSREC=  5300.200000000000    
!FREQREC=  5400.200000000000    
!NMODREC=  5450.200000000000    
!GTASKS=  0.000000000000000    
!HTASKS=  5500.200000000000    
!THRCHG= 0.1000000000000000    
!DEBUG= -1.000000000000000    
!CFIT_CPHF=  0.000000000000000    
!RDOMAUX_CPHF=  5.000000000000000    
!THRAO_CPHF= 0.9999999999999999E-11
!THRMO_CPHF= 0.9999999999999999E-11
!THROV_CPHF= 0.1000000000000000E-11
!THRSW_CPHF= 0.1000000000000000E-09
!THRPROD_CPHF= 0.9999999999999999E-11
!THRAOPR_CPHF= 0.1000000000000000E-11
!CFIT_SCFGRD=  0.000000000000000    
!RDOMAUX_SCFGRD=  7.000000000000000    
!THRAO_SCFGRD= 0.9999999999999999E-11
!THRMO_SCFGRD= 0.9999999999999999E-11
!THROV_SCFGRD= 0.1000000000000000E-11
!THRSW_SCFGRD= 0.1000000000000000E-09
!THRPROD_SCFGRD= 0.9999999999999999E-11
!THRAOPR_SCFGRD= 0.1000000000000000E-11
!LOCFIT_SCF=  0.000000000000000    
!LOCFIT_MP2= -1.000000000000000    
_RIDOM=  0.000000000000000    
!CC2_METHOD=  0.000000000000000    
_BASIS2006=FALSE
_SVDDEL= -1.000000000000000    
_SVDDELA= -1.000000000000000    
_SVDDELP= -1.000000000000000    
_SVDDELF= -1.000000000000000    
_SVDDELS= -1.000000000000000    
_SVDDEL_ABS= -1.000000000000000    
_SVDDELA_ABS= -1.000000000000000    
_SVDDELP_ABS= -1.000000000000000    
_SVDDELF_ABS= -1.000000000000000    
_SVDDELS_ABS= -1.000000000000000    
_MAXBASIS=  0.000000000000000    
!OPT_CONICAL=  0.000000000000000    
!CLEARSP_JGRID=  0.000000000000000    
D=  1.094073074373772    
A=  109.4843847148292    
T=  120.0035907538518    
GX1= 0.8092509062385663E-05
GY1= -0.000000000000000    
GZ1= 0.8506655413042139E-04
GX2=-0.1267437279829366    
GY2= -0.000000000000000    
GZ2=  2.063694509712839    
GX3=  1.987717702127808    
GY3= -0.000000000000000    
GZ3=-0.5687386897369769    
GX4=-0.9305352037948340    
GY4= -1.687907188472658    
GZ4=-0.7479847528464648    
GX5=-0.9305352037948340    
GY5=  1.687907188472658    
GZ5=-0.7479847528464648    
CX1= 0.8092509062385470E-05
CY1=  0.000000000000000    
CZ1= 0.8506655413042206E-04
H1X2=-0.1267437279829366    
H1Y2=  0.000000000000000    
H1Z2=  2.063694509712839    
H2X3=  1.987717702127808    
H2Y3=  0.000000000000000    
H2Z3=-0.5687386897369769    
H3X4=-0.9305352037948340    
H3Y4= -1.687907188472658    
H3Z4=-0.7479847528464648    
H4X5=-0.9305352037948340    
H4Y5=  1.687907188472658    
H4Z5=-0.7479847528464648    
[Atoms] Angs
C     1    6         0.0000042824       -0.0000000000        0.0000450153
H     2    1        -0.0670698922       -0.0000000000        1.0920601009
H     3    1         1.0518549059       -0.0000000000       -0.3009635525
H     4    1        -0.4924180220       -0.8932020150       -0.3958164839
H     5    1        -0.4924180220        0.8932020150       -0.3958164839
[GTO]
  1 0
 s    6  1.00
  0.3047524900D+04  0.1834737091D-02
  0.4573695200D+03  0.1403732293D-01
  0.1039486800D+03  0.6884262165D-01
  0.2921015500D+02  0.2321844388D+00
  0.9286663000D+01  0.4679413476D+00
  0.3163927000D+01  0.3623119882D+00
 s    3  1.00
  0.7868272300D+01 -0.1193324245D+00
  0.1881288500D+01 -0.1608541561D+00
  0.5442492600D+00  0.1143456443D+01
 s    1  1.00
  0.1687144800D+00  0.1000000000D+01
 s    1  1.00
  0.4380000000D-01  0.1000000000D+01
 p    3  1.00
  0.7868272300D+01  0.6899906693D-01
  0.1881288500D+01  0.3164239597D+00
  0.5442492600D+00  0.7443082892D+00
 p    1  1.00
  0.1687144800D+00  0.1000000000D+01
 p    1  1.00
  0.4380000000D-01  0.1000000000D+01
  
  2 0
 s    3  1.00
  0.1873113700D+02  0.3349460400D-01
  0.2825394400D+01  0.2347269500D+00
  0.6401216900D+00  0.8137573301D+00
 s    1  1.00
  0.1612777600D+00  0.1000000000D+01
 s    1  1.00
  0.3600000000D-01  0.1000000000D+01
  
  3 0
 s    3  1.00
  0.1873113700D+02  0.3349460400D-01
  0.2825394400D+01  0.2347269500D+00
  0.6401216900D+00  0.8137573301D+00
 s    1  1.00
  0.1612777600D+00  0.1000000000D+01
 s    1  1.00
  0.3600000000D-01  0.1000000000D+01
  
  4 0
 s    3  1.00
  0.1873113700D+02  0.3349460400D-01
  0.2825394400D+01  0.2347269500D+00
  0.6401216900D+00  0.8137573301D+00
 s    1  1.00
  0.1612777600D+00  0.1000000000D+01
 s    1  1.00
  0.3600000000D-01  0.1000000000D+01
  
  5 0
 s    3  1.00
  0.1873113700D+02  0.3349460400D-01
  0.2825394400D+01  0.2347269500D+00
  0.6401216900D+00  0.8137573301D+00
 s    1  1.00
  0.1612777600D+00  0.1000000000D+01
 s    1  1.00
  0.3600000000D-01  0.1000000000D+01


[MO]
 Sym=      1.1
 Ene=     -10.1621
 Spin= Alpha
 Occup=    2.000000
1 0.99523264801475
2 0.036801105315640
3 -0.031189539605692
4 0.003721789468201
5 -0.000000448542077
6 0.000000000000012
7 -0.000001142433035
8 0.000000592848907
9 -0.000000000000008
10 0.000003316154975
11 0.000000260900537
12 0.000000000000004
13 0.000002439123676
14 -0.000799109741035
15 0.006202702988061
16 -0.001190205066487
17 -0.000799112234522
18 0.006204902824243
19 -0.001186534184745
20 -0.000799318290949
21 0.006205969921470
22 -0.001186455634892
23 -0.000799318290952
24 0.006205969921478
25 -0.001186455634905
 Sym=      2.1
 Ene=      -0.6951
 Spin= Alpha
 Occup=    2.000000
1 -0.19950076454226
2 0.38152424877194
3 0.39279065441738
4 0.064205387122372
5 -0.000018905746136
6 0.000000000000061
7 -0.000078168374130
8 0.000076642522632
9 0.000000000000080
10 0.000086255031747
11 -0.000362563017526
12 0.000000000000099
13 -0.000842205516188
14 0.13607017106119
15 0.017847670517634
16 -0.007011684237903
17 0.13610180589820
18 0.017722605122782
19 -0.007982177877268
20 0.13613692872705
21 0.017545703662583
22 -0.008380883161285
23 0.13613692872569
24 0.017545703662393
25 -0.008380883161539
 Sym=      3.1
 Ene=      -0.3921
 Spin= Alpha
 Occup=    2.000000
1 0.000032636159791
2 -0.000214124246116
3 0.001341208709994
4 0.003862671497660
5 -0.015042074533741
6 -0.000000001118131
7 -0.44876221211775
8 -0.006777187665720
9 -0.000000000507320
10 -0.20297909594074
11 -0.001499290095097
12 -0.000000000099842
13 -0.045218016330983
14 -0.30244898700148
15 -0.22799164233709
16 0.014264054416865
17 0.073748651889922
18 0.054205895296205
19 -0.004528723738336
20 0.11445371185169
21 0.084534439810367
22 -0.005569802966911
23 0.11445371061530
24 0.084534438880252
25 -0.005569802937713
 Sym=      4.1
 Ene=      -0.3921
 Spin= Alpha
 Occup=    2.000000
1 -0.000003915440369
2 0.000101352392770
3 -0.000903128945274
4 -0.001094293546584
5 0.44875865065645
6 0.000000007820871
7 -0.015068656919966
8 0.20333703310877
9 0.000000003548434
10 -0.006714730922283
11 0.043234215340748
12 0.000000000699477
13 -0.002746504664989
14 -0.028818831352249
15 -0.020945114062922
16 0.003999507822118
17 0.29472200795603
18 0.22195976006587
19 -0.012529334385273
20 -0.13301940074381
21 -0.099117656679913
22 0.004003412979464
23 -0.13301939210213
24 -0.099117650176357
25 0.004003412773449
 Sym=      5.1
 Ene=      -0.3920
 Spin= Alpha
 Occup=    2.000000
1 -0.000000000000059
2 -0.000000000001378
3 0.000000000018454
4 0.000000000028694
5 -0.000000007854988
6 0.44897381493056
7 -0.000000000855740
8 -0.000000003558158
9 0.20371990810194
10 -0.000000000388288
11 -0.000000000757346
12 0.040169589489732
13 -0.000000000064960
14 -0.000000000251350
15 -0.000000000203135
16 -0.000000000034005
17 -0.000000004950459
18 -0.000000003732058
19 0.000000000207518
20 -0.24800404932377
21 -0.18667032445662
22 0.005919940264323
23 0.24800405452752
24 0.18667032833304
25 -0.005919940432232
 Sym=      6.1
 Ene=      -0.0035
 Spin= Alpha
 Occup=    0.000000
1 0.066417001425407
2 -0.14455297981410
3 -0.56219282094874
4 -2.65345326464946
5 0.010848245797184
6 -0.000000000000898
7 0.010896320437379
8 0.007925998531569
9 -0.000000000000729
10 0.006851940214684
11 -0.024613245003362
12 -0.000000000004711
13 -0.063136428714602
14 0.002560514413633
15 0.22667159142555
16 0.84381916835461
17 0.001297661609873
18 0.20952048438765
19 0.79642098017781
20 -0.002581421677365
21 0.17251102872271
22 0.98255974772794
23 -0.002581421677260
24 0.17251102872439
25 0.98255974775050
 Sym=      7.1
 Ene=       0.0417
 Spin= Alpha
 Occup=    0.000000
1 0.009032009940992
2 -0.015054483558443
3 -0.11475592424916
4 -0.31392028145269
5 -0.12285406154789
6 0.000000000002856
7 -0.12899019676231
8 -0.095930213160524
9 0.000000000003215
10 -0.10151963783058
11 -0.62894662975055
12 0.000000000014837
13 -0.76702594454247
14 -0.014819184662880
15 0.075106257771112
16 2.78773776992800
17 -0.011557135806288
18 0.047166034405413
19 1.76740456629257
20 0.013225936544236
21 0.039436879735881
22 -2.09014790594777
23 0.013225936544409
24 0.039436879732236
25 -2.09014790603534
 Sym=      8.1
 Ene=       0.0443
 Spin= Alpha
 Occup=    0.000000
1 0.000000000000108
2 -0.000000000000162
3 0.000000000000359
4 0.000000000012458
5 0.000000000004701
6 0.18135715687344
7 -0.000000000001456
8 0.000000000003623
9 0.15155993928181
10 -0.000000000001750
11 0.000000000030278
12 1.04186416073172
13 -0.000000000009403
14 -0.000000000000061
15 0.000000000000296
16 0.000000000034415
17 0.000000000000538
18 -0.000000000002969
19 -0.000000000116212
20 -0.017781602858274
21 0.039691074127634
22 3.19765147496909
23 0.017781602857734
24 -0.039691074131540
25 -3.19765147489494
 Sym=      9.1
 Ene=       0.0452
 Spin= Alpha
 Occup=    0.000000
1 -0.000196360720977
2 0.000659720757138
3 0.001278467603353
4 0.006982746105945
5 0.13115423977589
6 -0.000000000004576
7 -0.12535887851066
8 0.10696376946591
9 -0.000000000004102
10 -0.10282400029208
11 0.81273085506324
12 -0.000000000024391
13 -0.68810426059212
14 -0.016464836492463
15 0.028899642528641
16 2.82171211231767
17 0.018588754066073
18 -0.048766653859316
19 -3.54860899187505
20 -0.001024610306466
21 0.008917181747143
22 0.35860975106070
23 -0.001024610307322
24 0.008917181749407
25 0.35860975121431
 Sym=     10.1
 Ene=       0.0919
 Spin= Alpha
 Occup=    0.000000
1 0.001936871361006
2 -0.001271842718366
3 -0.053747580332241
4 -0.39910078505629
5 0.008222380071032
6 0.000000000000224
7 -0.030076840835922
8 -0.053188713276501
9 0.000000000000124
10 0.14279880538584
11 -1.08762182019938
12 -0.000000000003161
13 3.11711094411389
14 -0.088521438170519
15 -0.70006959591545
16 -4.75913914121971
17 0.051717345018032
18 0.49783527227098
19 3.01048098638727
20 0.017077011387487
21 0.19689794157235
22 1.05476729496378
23 0.017077011387577
24 0.19689794157394
25 1.05476729496733
 Sym=     11.1
 Ene=       0.1008
 Spin= Alpha
 Occup=    0.000000
1 0.004571968164976
2 -0.005596697685531
3 -0.083329151609280
4 -0.27457852165547
5 -0.025390361491570
6 -0.000000000000220
7 -0.001473312107087
8 0.18585073028361
9 0.000000000001140
10 0.073904918095372
11 3.08214467853785
12 0.000000000017894
13 1.09147600557847
14 -0.026073644035206
15 -0.17914027305109
16 -1.37558681173018
17 -0.080571392435802
18 -0.61713473854028
19 -3.98417198095841
20 0.053268960658544
21 0.49672136867637
22 2.80864053074580
23 0.053268960657435
24 0.49672136866945
25 2.80864053070117
 Sym=     12.1
 Ene=       0.1112
 Spin= Alpha
 Occup=    0.000000
1 0.000000000000753
2 -0.000000000001519
3 -0.000000000005662
4 0.000000000066719
5 0.000000000000268
6 -0.025027372727062
7 0.000000000000198
8 -0.000000000001931
9 0.25170733467080
10 -0.000000000000397
11 -0.000000000017336
12 3.19549544643049
13 -0.000000000000815
14 0.000000000000246
15 -0.000000000001961
16 -0.000000000016268
17 0.000000000000970
18 0.000000000002667
19 0.000000000009637
20 0.088183246375538
21 0.70889454785402
22 3.94628787266674
23 -0.088183246375472
24 -0.70889454786576
25 -3.94628787271821
 Sym=     13.1
 Ene=       0.1399
 Spin= Alpha
 Occup=    0.000000
1 0.10480083359988
2 -0.16806860280053
3 -1.13810492057175
4 8.59497401192782
5 0.002513601745546
6 -0.000000000001888
7 0.002884951181075
8 0.003562807977027
9 -0.000000000008265
10 0.014851856857211
11 -0.016694772991835
12 -0.000000000016341
13 0.055184517946555
14 0.031002343378767
15 -0.17947577803175
16 -2.02246184564181
17 0.035017158893734
18 -0.14486641976590
19 -1.89106691478425
20 0.034399770868102
21 -0.14020352270904
22 -1.90531169196366
23 0.034399770870406
24 -0.14020352268513
25 -1.90531169192809
 Sym=     14.1
 Ene=       0.2167
 Spin= Alpha
 Occup=    0.000000
1 -0.001029517778581
2 0.001480259575880
3 0.016441459505807
4 -0.033920713051726
5 -0.057043527254615
6 -0.000000000026037
7 0.38851091217030
8 -0.21640538466161
9 -0.000000000090819
10 1.40759397061207
11 0.21324507845095
12 0.000000000111049
13 -1.53880940462463
14 -0.15960066449443
15 -1.87363277363811
16 3.55797846197174
17 0.067643088847688
18 0.78065365218031
19 -1.45175353461506
20 0.045136659421028
21 0.53618998919033
22 -1.03452684838763
23 0.045136659436991
24 0.53618998938557
25 -1.03452684879343
 Sym=     15.1
 Ene=       0.2173
 Spin= Alpha
 Occup=    0.000000
1 0.000301337162900
2 -0.000793166352073
3 -0.002235770140186
4 0.039447017161679
5 -0.39143105253277
6 0.000000000036359
7 -0.059693749129988
8 -1.39958744672829
9 0.000000000126134
10 -0.21118356292369
11 1.59372560176472
12 -0.000000000155673
13 0.24844543565386
14 0.013527634441961
15 0.16205222596925
16 -0.34287455798262
17 0.14269287736139
18 1.69074876674531
19 -3.32317443524661
20 -0.077828609893762
21 -0.92953705472644
22 1.81478863851270
23 -0.077828609916348
24 -0.92953705499569
25 1.81478863907883
 Sym=     16.1
 Ene=       0.2186
 Spin= Alpha
 Occup=    0.000000
1 0.000000000000454
2 -0.000000000001089
3 -0.000000000003402
4 0.000000000032503
5 0.000000000031843
6 0.39855538564125
7 0.000000000030889
8 0.000000000112836
9 1.40246316212764
10 0.000000000111015
11 -0.000000000129107
12 -1.69966935813089
13 -0.000000000122214
14 -0.000000000011590
15 -0.000000000137409
16 0.000000000252765
17 -0.000000000008495
18 -0.000000000102743
19 0.000000000194551
20 0.12445461831468
21 1.49934234309505
22 -3.09696214850846
23 -0.12445461829444
24 -1.49934234285887
25 3.09696214803282
 Sym=     17.1
 Ene=       0.3482
 Spin= Alpha
 Occup=    0.000000
1 -0.13212373938368
2 0.11059744847118
3 3.17601518912177
4 8.34942094909450
5 -0.006150467377055
6 0.000000000000423
7 -0.010178900498910
8 0.012323409083822
9 -0.000000000001670
10 0.012811210300605
11 0.017531304161632
12 -0.000000000001190
13 0.050500754045932
14 -0.11377362874327
15 -2.07180029305533
16 -1.49084659424745
17 -0.10970877681054
18 -2.06960799836183
19 -1.41625173552918
20 -0.10207153990170
21 -2.05412210342016
22 -1.40143148004889
23 -0.10207153990135
24 -2.05412210341898
25 -1.40143148004311
 Sym=     18.1
 Ene=       0.7109
 Spin= Alpha
 Occup=    0.000000
1 -0.000928412333627
2 0.003207778319525
3 0.010991748188232
4 0.039241069764298
5 -0.26825720693141
6 0.000000000003750
7 0.92954515175045
8 0.56086929820404
9 -0.000000000007877
10 -1.94297708921975
11 -0.48867901340462
12 0.000000000007467
13 1.69253938040110
14 0.36887916735307
15 0.35921646787638
16 -2.29592268493934
17 -0.20550234962458
18 -0.20744317049536
19 1.23908681881642
20 -0.087719558105251
21 -0.091938443623847
22 0.51626144255141
23 -0.087719558102154
24 -0.091938443622414
25 0.51626144253533
 Sym=     19.1
 Ene=       0.7128
 Spin= Alpha
 Occup=    0.000000
1 0.001106784892917
2 -0.003282439935837
3 -0.013668765108224
4 -0.034147795940956
5 -0.92920427438183
6 0.000000000017435
7 -0.26799414654793
8 1.94605561350637
9 -0.000000000037165
10 0.56265771992298
11 -1.71792788591331
12 0.000000000033560
13 -0.50083437319993
14 -0.079509642783249
15 -0.074435992942547
16 0.53816146428865
17 -0.31788790192054
18 -0.31144066352108
19 2.02871093079613
20 0.20600871592855
21 0.21051467815589
22 -1.27492962511135
23 0.20600871593979
24 0.21051467816747
25 -1.27492962518532
 Sym=     20.1
 Ene=       0.7160
 Spin= Alpha
 Occup=    0.000000
1 0.000000000000091
2 0.000000000002212
3 -0.000000000007627
4 -0.000000000005806
5 0.000000000017696
6 0.96778029433301
7 0.000000000000811
8 -0.000000000037232
9 -2.03051739263755
10 -0.000000000001473
11 0.000000000033094
12 1.82364970011044
13 0.000000000002248
14 0.000000000000541
15 0.000000000001142
16 0.000000000001177
17 0.000000000006738
18 0.000000000008998
19 -0.000000000040455
20 -0.30647596446784
21 -0.31197899361088
22 2.00204359114063
23 0.30647596446003
24 0.31197899361213
25 -2.00204359109759
 Sym=     21.1
 Ene=       0.9999
 Spin= Alpha
 Occup=    0.000000
1 0.000586418499096
2 -0.007761186873106
3 0.014616552915613
4 0.012213004418029
5 0.29265035941020
6 0.000000000457844
7 0.58580873659511
8 -0.37371468362192
9 -0.000000000583406
10 -0.74899636075875
11 -0.026212532903334
12 -0.000000000046572
13 -0.047241426024332
14 -0.99553954982601
15 1.66994565786352
16 -0.56033900442396
17 -0.20874025852937
18 0.35024880347282
19 -0.11676985738923
20 0.61046205075128
21 -1.02313784081409
22 0.33364151768027
23 0.61046204942655
24 -1.02313783859269
25 0.33364151696196
 Sym=     22.1
 Ene=       1.0000
 Spin= Alpha
 Occup=    0.000000
1 0.000079889630583
2 -0.001228430522757
3 0.002638686676930
4 0.003950939497916
5 0.58514519390969
6 0.000000000184953
7 -0.29339311773472
8 -0.74778552782958
9 -0.000000000235535
10 0.37610342291166
11 -0.049588794648694
12 -0.000000000019060
13 0.019579650630269
14 0.57956070249586
15 -0.97317051302594
16 0.33017258003774
17 -1.13509148792090
18 1.90354174896911
19 -0.63388454513843
20 0.27897745825609
21 -0.46777360401276
22 0.15025479014176
23 0.27897745772005
24 -0.46777360311441
25 0.15025478985161
 Sym=     23.1
 Ene=       1.0003
 Spin= Alpha
 Occup=    0.000000
1 0.000000000000140
2 -0.000000000005381
3 0.000000000009266
4 -0.000000000002031
5 0.000000000371261
6 -0.65123927782186
7 0.000000000327373
8 -0.000000000475214
9 0.82898908525393
10 -0.000000000418238
11 -0.000000000031733
12 0.067816705042072
13 -0.000000000027963
14 -0.000000000536011
15 0.000000000898383
16 -0.000000000296875
17 -0.000000000470384
18 0.000000000789600
19 -0.000000000261254
20 -0.94443514706547
21 1.58191215507098
22 -0.51009506784936
23 0.94443514807745
24 -1.58191215676627
25 0.51009506840748
 Sym=     24.1
 Ene=       1.1302
 Spin= Alpha
 Occup=    0.000000
1 0.004875555972567
2 2.26037679177497
3 -5.65841306492151
4 -1.40858783241853
5 0.000272735076446
6 -0.000000000000452
7 0.000005165634147
8 0.001010102242506
9 0.000000000001259
10 0.002990612695225
11 -0.005358492317244
12 -0.000000000001513
13 -0.009559147607123
14 -0.25887063584152
15 1.74339496283536
16 0.12617980398373
17 -0.25569823320147
18 1.73957965627848
19 0.11872075557269
20 -0.24981401238158
21 1.73060328001239
22 0.11394737581293
23 -0.24981401238418
24 1.73060328001405
25 0.11394737581550
 Sym=     25.1
 Ene=       1.1771
 Spin= Alpha
 Occup=    0.000000
1 -0.099828146686249
2 -0.90088179569158
3 1.60719070440865
4 -5.09814096220032
5 -0.000557385887601
6 0.000000000001326
7 -0.000800047470512
8 0.002586159561152
9 -0.000000000002103
10 0.003554439689745
11 -0.007211520356523
12 0.000000000000813
13 -0.012602197604870
14 -0.72940377461097
15 0.71759862936788
16 0.93040173101103
17 -0.72699161951149
18 0.71387321705075
19 0.91874278076974
20 -0.72216494310564
21 0.70710134799575
22 0.90949747455550
23 -0.72216494310968
24 0.70710134800235
25 0.90949747455069
 [FREQ]
      0.00
      0.00
      0.00
      0.00
      0.00
      0.00
   1394.18
   1394.39
   1395.33
   1591.57
   1592.36
   3034.97
   3151.97
   3152.32
   3152.64
 [FR-COORD]
C          0.0000080925       -0.0000000000        0.0000850666
H         -0.1267437280       -0.0000000000        2.0636945097
H          1.9877177021       -0.0000000000       -0.5687386897
H         -0.9305352038       -1.6879071885       -0.7479847528
H         -0.9305352038        1.6879071885       -0.7479847528
 [FR-NORM-COORD]
 Vibration                    1
          0.02195732          0.00277468          0.16862618
          0.45262156         -0.09506151          0.19507860
         -0.09675315          0.09229700         -0.24619817
         -0.08009112          0.00696031          0.28612261
         -0.18823056          0.00696031          0.43952854
 Vibration                    2
          0.00072754         -0.01383964         -0.06976374
          0.25280155          0.48549500         -0.05428075
         -0.06875541         -0.02064098         -0.31256643
          0.02244094         -0.26027720          0.45927575
         -0.20374229         -0.26027720         -0.37146778
 Vibration                    3
         -0.01480702          0.08244052          0.08463595
         -0.26472938          0.13352551          0.06928512
          0.05408284          0.50973354          0.32536613
          0.45729979         -0.15678920          0.03715606
         -0.30571737         -0.15678920         -0.09327911
 Vibration                    4
          0.00090650          0.04531424          0.13364540
         -0.19206918          0.37358021          0.12179237
          0.05409929         -0.37407595          0.31952341
         -0.21343302          0.09078651          0.29766648
          0.35515551          0.09078651         -0.20441271
 Vibration                    5
         -0.08259144          0.21613019         -0.05554829
          0.06530840          0.16437391         -0.04646392
         -0.12335930          0.14171826         -0.19800835
         -0.21285637          0.27923608         -0.03589736
         -0.05955553          0.27923608          0.05818573
 Vibration                    6
          0.23411396          0.08106851         -0.03035949
          0.23012118          0.07239389         -0.03060473
          0.23521455          0.07509109         -0.02651357
          0.22832789          0.08839783         -0.03969955
          0.24279483          0.08839783         -0.02462034
 Vibration                    7
          0.00000000         -0.11595222          0.00000000
         -0.00000000          0.55837776          0.00000000
         -0.00000000          0.55358817         -0.00000000
         -0.23063142          0.13488263         -0.18827346
          0.23063142          0.13488263          0.18827346
 Vibration                    8
         -0.11160800         -0.00000000         -0.03142582
          0.54286615          0.00000000          0.01728508
          0.01828737          0.00000000          0.29788917
          0.38440514         -0.27436415          0.02965397
          0.38440514          0.27436415          0.02965397
 Vibration                    9
          0.03141779         -0.00000000         -0.11156364
         -0.11489440          0.00000000         -0.08145123
          0.16809342          0.00000000          0.44194865
         -0.21379275         -0.11789736          0.48446890
         -0.21379275          0.11789736          0.48446890
 Vibration                   10
         -0.00002975         -0.00000000         -0.00048306
          0.49715352          0.00000000          0.03026565
          0.13799775         -0.00000000          0.48088219
         -0.31739840          0.28684254         -0.25269577
         -0.31739840         -0.28684254         -0.25269577
 Vibration                   11
         -0.00000000         -0.00053845         -0.00000000
          0.00000000         -0.49531532          0.00000000
          0.00000000          0.50062772          0.00000000
         -0.31306738          0.00055197          0.38738271
          0.31306738          0.00055197         -0.38738271
 Vibration                   12
          0.00013888          0.00000000         -0.00006147
         -0.03064738         -0.00000000          0.49804638
          0.47736760          0.00000000         -0.13672913
         -0.22418758         -0.40683368         -0.18029240
         -0.22418758          0.40683368         -0.18029240
 Vibration                   13
         -0.00000000         -0.08647770         -0.00000000
         -0.00000000         -0.02462876          0.00000000
          0.00000000         -0.02461603         -0.00000000
          0.31120146          0.53987311          0.25017593
         -0.31120146          0.53987311         -0.25017593
 Vibration                   14
         -0.07693116          0.00000000         -0.03951964
         -0.04288094          0.00000000          0.32853341