
 Primary working directories    : /data/scratch
 Secondary working directories  : /data/scratch
 Wavefunction directory         : /home/ospite/wfu/
 Main file repository           : /data/scratch/

 ARCHNAME  : Linux/x86_64
 FC        : /usr/bin/gfortran
 FCVERSION : 4.8.5
 BLASLIB   : 
 id        : polimi

 Nodes     nprocs
 molmod       1

 Using default tuning parameters: mindgm=1; mindgv=20; mindgc=4; mindgr=1; noblas=0; mincuda=1000; minvec=7
 default implementation of scratch files=df  

 ***,methane with imposed symmetry and sto-g3 basis set
 memory,100,m
 
 basis=sto-3g
 symmetry,y
 
 geometry={angstrom
 C
 H1, C, d
 H2, C, d, H1, a
 H3, C, d, H1, a, H2, t
 H4, C, d, H1, a, H2, -t
 }
 
 d=1.09 Ang
 a=109.47 Deg
 t=120.0 Deg
 
 {dfunc,b3lyp}
 ks
 optg
 frequencies
 put,molden,ch4_sto-3g.molpro

 Variables initialized (661), CPU time= 0.01 sec
 Commands  initialized (458), CPU time= 0.05 sec, 486 directives.
 Default parameters read. Elapsed time= 0.19 sec

 Checking input...
 Passed
1


                                         ***  PROGRAM SYSTEM MOLPRO  ***
                         Copyright, University College Cardiff Consultants Limited, 2008

                                    Version 2010.1 linked Mar  6 2018 16:01:50


 **********************************************************************************************************************************
 LABEL *   methane with imposed symmetry and sto-g3 basis set                            
 Linux-3.10.0-1160.108.1.el7.x86_64/molmod(x86_64) 64 bit serial version                 DATE: 17-Aug-24          TIME: 17:12:14  
 **********************************************************************************************************************************

 SHA1:             d90fb18d49a3be29a79769f900c595ef3b8176e2
 **********************************************************************************************************************************

 Variable memory set to  100000000 words,  buffer space   230000 words

 SETTING BASIS          =    STO-3G
 ZSYMEL=Y  

 SETTING D              =         1.09000000  ANG                             
 SETTING A              =       109.47000000  DEG                             
 SETTING T              =       120.00000000  DEG                             


 Recomputing integrals since basis changed


 Using spherical harmonics

 Library entry C      S STO-3G               selected for orbital group  1
 Library entry C      P STO-3G               selected for orbital group  1
 Library entry H      S STO-3G               selected for orbital group  2

1PROGRAM * SEWARD (Integral evaluation for generally contracted gaussian basis sets)     Author: Roland Lindh, 1990

 Geometry written to block  1 of record 700

 Orientation using atomic masses  
 Molecule type: Symmetric top,     Order of principal axis = 3
 User-specified symmetry elements: Y
 Symmetry elements: Y
 Rotational constants:     158.2574080    158.2574080    158.2538321 GHz  (calculated with average atomic masses)

 Point group  Cs  



 ATOMIC COORDINATES

 NR  ATOM    CHARGE       X              Y              Z

   1  C       6.00   -0.000000000    0.000000000   -0.000007798
   2  H1      1.00   -0.000000000    0.000000000    2.059793685
   3  H2      1.00    1.942014089    0.000000000   -0.686566920
   4  H3      1.00   -0.971007045   -1.681833536   -0.686566920
   5  H4      1.00   -0.971007045    1.681833536   -0.686566920

 Bond lengths in Bohr (Angstrom)

 1-2  2.059801483  1-3  2.059801483  1-4  2.059801483  1-5  2.059801483
     ( 1.090000000)     ( 1.090000000)     ( 1.090000000)     ( 1.090000000)

 Bond angles

  2-1-3  109.47000000   2-1-4  109.47000000   2-1-5  109.47000000   3-1-4  109.47244124

  3-1-5  109.47244124   4-1-5  109.47244124

 NUCLEAR CHARGE:                   10
 NUMBER OF PRIMITIVE AOS:          27
 NUMBER OF SYMMETRY AOS:           27
 NUMBER OF CONTRACTIONS:            9   (   7A'  +   2A"  )
 NUMBER OF CORE ORBITALS:           1   (   1A'  +   0A"  )
 NUMBER OF VALENCE ORBITALS:        8   (   6A'  +   2A"  )


 NUCLEAR REPULSION ENERGY   13.43538921


 Eigenvalues of metric

         1 0.221E+00 0.369E+00 0.369E+00 0.971E+00 0.146E+01 0.146E+01 0.232E+01
         2 0.369E+00 0.146E+01


 Contracted 2-electron integrals neglected if value below      1.0D-11
 AO integral compression algorithm  1   Integral accuracy      1.0D-11

     0.262 MB (compressed) written to integral file (100.0%)


 NUMBER OF SORTED TWO-ELECTRON INTEGRALS:        664.     BUFFER LENGTH:  32768
 NUMBER OF SEGMENTS:   1  SEGMENT LENGTH:        664      RECORD LENGTH: 524288

 Memory used in sort:       0.56 MW

 SORT1 READ         796. AND WROTE         590. INTEGRALS IN      1 RECORDS. CPU TIME:     0.00 SEC, REAL TIME:     0.00 SEC
 SORT2 READ         590. AND WROTE         664. INTEGRALS IN      1 RECORDS. CPU TIME:     0.00 SEC, REAL TIME:     0.01 SEC

 FILE SIZES:   FILE 1:     2.8 MBYTE,  FILE 4:     4.2 MBYTE,   TOTAL:      7.1 MBYTE

 OPERATOR DM      FOR CENTER  0  COORDINATES:    0.000000    0.000000    0.000000


 **********************************************************************************************************************************
 DATASETS  * FILE   NREC   LENGTH (MB)   RECORD NAMES
              1      19        2.58       500      610      700      900      950      970     1000      129      960     1100   
                                          VAR    BASINP    GEOM    SYMINP    ZMAT    AOBASIS   BASIS     P2S    ABASIS      S 
                                         1400     1410     1200     1210     1080     1600     1650     1300     1700   
                                           T        V       H0       H01     AOSYM     SMH    MOLCAS    ERIS     OPER   

 PROGRAMS   *        TOTAL       INT
 CPU TIMES  *         0.68      0.18
 REAL TIME  *         0.89 SEC
 DISK USED  *         7.58 MB      
 **********************************************************************************************************************************

 Density functional group B3LYP=B88+DIRAC+LYP+VWN5
 Functional: B88(Automatically generated B88)                                  Gradient terms: 1
 Functional: DIRAC(Automatically generated DIRAC)                              Gradient terms: 0
 Functional: LYP(Lee-Yang-Parr gradient-corrected correlation energy (1988))   Gradient terms: 1
 Functional: VWN5(Automatically generated VWN5)                                Gradient terms: 0
 Use grid at  1800.2


 Exact exchange will be calculated, factor:  0.2000

 Functional: B88                       Factor:  0.7200
 Functional: DIRAC                     Factor:  0.0800
 Functional: LYP                       Factor:  0.8100
 Functional: VWN5                      Factor:  0.1900

 Generated new metagrid on record  1800.2 with target accuracy 1.0D-06 and 7496 points in CPU time    0.2
 Computed new grid on record 1800.1 in CPU time    0.3
   11047 words reserved for DFT integration

 PROGRAM * RKS-SCF (Restricted closed shell Kohn-Sham)     Authors: W. Meyer, H.-J. Werner, P.J. Knowles, 1993

 NUMBER OF ELECTRONS:       5+    5-
 CONVERGENCE THRESHOLDS:    1.00E-05 (Density)    1.00E-06 (Energy)
 MAX. NUMBER OF ITERATIONS:       60
 INTERPOLATION TYPE:            DIIS
 INTERPOLATION STEPS:              2 (START)      1 (STEP)
 LEVEL SHIFTS:                  0.00 (CLOSED)  0.00 (OPEN) 



 Use fine grid record 1800.2 for energy threshold 1.0D-06
 Orbital guess generated from atomic densities. Full valence occupancy:    7   2

 Molecular orbital dump at record        2100.2

 Initial alpha occupancy:   4   1
 Initial beta  occupancy:   4   1
 Wave function symmetry:    1

 ITERATION    DDIFF          GRAD             ENERGY        2-EL.EN.            DIPOLE MOMENTS         DIIS
    1      0.000D+00      0.000D+00       -39.99833631     63.742375    0.00000    0.00000    0.00001    0
    2      0.000D+00      0.210D-01       -39.99990662     62.619536    0.00000    0.00000   -0.00000    1
    3      0.476D-01      0.172D-01       -40.00270970     63.115312    0.00000    0.00000    0.00000    2
    4      0.212D-01      0.113D-03       -40.00270983     63.117870    0.00000    0.00000    0.00000    3
    5      0.165D-03      0.504D-05       -40.00270983     63.117973    0.00000    0.00000    0.00000    4
    6      0.843D-05      0.151D-08       -40.00270983     63.117973    0.00000    0.00000    0.00000    0

 Final occupancy:   4   1

 !RKS STATE 1.1 Energy                -40.002709832537
 Nuclear energy                        13.43538921
 One-electron energy                  -79.42811012
 Two-electron energy                   31.55898651
 SCF exchange energy                   -6.61516020     Factor=0.2000
 Density functional                    -5.56897543     B88=-6.58980387 DIRAC=-5.90873124 LYP=-0.29418208 VWN5=-0.59647717
 Virial quotient                       -1.01486762
 !RKS STATE 1.1 Dipole moment           0.00000140     0.00000000     0.00000260
 Dipole moment /Debye                   0.00000356     0.00000000     0.00000660

 Orbital energies:

         1.1          2.1          3.1          4.1          5.1          6.1
     -9.991938    -0.660014    -0.358467    -0.358461     0.464275     0.464288

         1.2          2.2
     -0.358466     0.464284


 **********************************************************************************************************************************
 DATASETS  * FILE   NREC   LENGTH (MB)   RECORD NAMES
              1      20        2.82       500      610      700      900      950      970     1000      129      960     1100   
                                          VAR    BASINP    GEOM    SYMINP    ZMAT    AOBASIS   BASIS     P2S    ABASIS      S 
                                         1400     1410     1200     1210     1080     1600     1650     1300     1700     1800   
                                           T        V       H0       H01     AOSYM     SMH    MOLCAS    ERIS     OPER     GRID   

              2       4        0.29       700     1000     1800     2100   
                                         GEOM     BASIS    GRID      RKS  

 PROGRAMS   *        TOTAL        KS       INT
 CPU TIMES  *         1.75      1.07      0.18
 REAL TIME  *         2.09 SEC
 DISK USED  *         7.58 MB      
 **********************************************************************************************************************************


 PROGRAM * OPT (Geometry optimization)     Authors: F. Eckert and H.-J. Werner


 BFGS update of hessian

 *** Long output written to logfile /home/ospite/Desktop/MMfP/Project6/CH4/molpro/DFT/ch4_sto-3g.log ***


 Geometry optimization using default procedure for command KS-SCF

 Geometry written to block  1 of record 700

 Making model hessian for Z-matrix coordinates

 Quadratic Steepest Descent - Minimum Search

 Optimization point 1

 Variable                      Last           Current        Next           Gradient       Hessian

 E(KS-SCF000) / Hartree      0.00000000   -40.00270983     0.00000000
 D / ANG                     0.00000000     1.09000000     1.09610034    -0.04192410     6.87242182
 A / DEG                     0.00000000   109.47000000   109.46929786     0.00000016     0.00023257
 T / DEG                     0.00000000   120.00000000   120.00508803    -0.00000076     0.00014996
 Convergence:                0.00000000  (line search)     0.01152832     0.02218532  (total)

 Optimization point 2

 Variable                      Last           Current        Next           Gradient       Hessian

 E(KS-SCF000) / Hartree    -40.00270983   -40.00285584     0.00000000
 D / ANG                     1.09000000     1.09610034     1.09699968    -0.00538461     5.98957346
 A / DEG                   109.47000000   109.46929786   109.46971683    -0.00000008     0.00022487
 T / DEG                   120.00000000   120.00508803   119.99525846     0.00000124     0.00014485
 Convergence:                0.00000000  (line search)     0.00170816     0.00285030  (total)

 Freezing grid

 Optimization point 3

 Variable                      Last           Current        Next           Gradient       Hessian

 E(KS-SCF000) / Hartree    -40.00285584   -40.00285748     0.00000000
 D / ANG                     1.09610034     1.09699968     1.09701806    -0.00009451     5.89940021
 A / DEG                   109.46929786   109.46971683   109.47088737    -0.00000026     0.00022376
 T / DEG                   120.00508803   119.99525846   119.98652699     0.00000123     0.00014379
 Convergence:                0.00000000  (line search)     0.00015763     0.00008750  (total)

 END OF GEOMETRY OPTIMIZATION.    TOTAL CPU:         6.3 SEC

 ITER.   ENERGY(OLD)    ENERGY(NEW)      DE          GRADMAX     GRADNORM    GRADRMS     STEPMAX     STEPLEN     STEPRMS
   1   -40.00270983   -40.00285584    -0.00014601  0.02218528  0.02218532  0.00739511  0.01152797  0.01152832  0.00384277
   2   -40.00285584   -40.00285748    -0.00000164  0.00284941  0.00285030  0.00095010  0.00169950  0.00170816  0.00056939
   3   -40.00285748   -40.00285728     0.00000020  0.00007029  0.00008750  0.00002917  0.00015239  0.00015763  0.00005254

 Geometry written to block  1 of record 700


 **********************************************************************************************************************************
 DATASETS  * FILE   NREC   LENGTH (MB)   RECORD NAMES
              1      20        2.81       500      610      700      900      950      970     1000      129      960     1100   
                                          VAR    BASINP    GEOM    SYMINP    ZMAT    AOBASIS   BASIS     P2S    ABASIS      S 
                                         1400     1410     1200     1210     1080     1600     1650     1300     1700     1800   
                                           T        V       H0       H01     AOSYM     SMH    MOLCAS    ERIS     OPER     GRID   

              2       4        0.29       700     1000     1800     2100   
                                         GEOM     BASIS    GRID      RKS  

 PROGRAMS   *        TOTAL      OPTG        KS       INT
 CPU TIMES  *         8.08      6.33      1.07      0.18
 REAL TIME  *         9.29 SEC
 DISK USED  *         7.61 MB      
 **********************************************************************************************************************************


 PROGRAM * HESSIAN

 Computing numerical hessian using default procedure for command KS-SCF

 Symmetry elements for unique displacements: Y  

 Using no symmetry in wavefunction calculations

 Running default procedure: KS-SCF000


 Recomputing wavefunction at reference geometry

 Numerically approximating hessian using central gradient differences

 Task list generated. Total number of displacements:     21

    5 tasks completed, CPU=    13.97 sec, Elapsed=    14.35 sec
   10 tasks completed, CPU=    28.02 sec, Elapsed=    28.78 sec
   15 tasks completed, CPU=    42.03 sec, Elapsed=    43.18 sec
   20 tasks completed, CPU=    55.86 sec, Elapsed=    57.45 sec

 Numerical KS-SCF000 hessian completed. CPU-time:    58.51 sec, Elapsed:    60.16 sec

 KS-SCF hessian saved to record  5300.2

 FREQUENCIES * CALCULATION OF HARMONIC VIBRATIONAL SPECTRA FOR KS-SCF


 Permanent Dipole Moment [debye]
   1-  3    0.000130    0.000000   -0.000041

 Dipole Moment Norm    0.0001360 [debye]

 Dipole Moment Derivatives [debye/ang]
                   1             2             3             4             5             6             7             8
         1    -0.5729279     0.0000000     0.0002365     0.2543323     0.0000000    -0.1408091     0.0049674     0.0000000
         2     0.0000000    -0.5729678    -0.0000000    -0.0000000     0.3007826     0.0000000     0.0000000     0.3008485
         3     0.0001195     0.0000000    -0.5732752    -0.1408184     0.0000000    -0.1253914     0.2289651     0.0000000
                   9            10            11            12            13            14            15
         1     0.2288921     0.1567989    -0.2129994    -0.0441640     0.1567989     0.2129994    -0.0441640
         2    -0.0000000    -0.2128664    -0.0143604    -0.0650906     0.2128664    -0.0143604     0.0650906
         3     0.1236910    -0.0441233    -0.0650683     0.2874554    -0.0441233     0.0650683     0.2874554

 Projecting out rotations and translations

   Low Vibration      Wavenumber
        Nr             [1/cm] 
        1                0.00
        2                0.00
        3                0.00
        4                0.00
        5                0.00
        6                0.00

     Vibration        Wavenumber
        Nr             [1/cm] 
        1             1535.08
        2             1535.38
        3             1535.57
        4             1761.95
        5             1762.26
        6             3281.92
        7             3519.61
        8             3519.86
        9             3519.90

 FREQUENCIES * CALCULATION OF NORMAL MODES FOR KS-SCF


 Atomic Coordinates

  Nr  Atom  Charge       X              Y              Z

   1   C     6.00   -0.000048169    0.000000000    0.000013643
   2   H1    1.00    0.649752752    0.000000000    1.968604987
   3   H2    1.00    1.639364623    0.000000000   -1.268812119
   4   H3    1.00   -1.144271688   -1.692882659   -0.349977723
   5   H4    1.00   -1.144271688    1.692882659   -0.349977723

 Frequencies dumped to record   5400.2

 Gradient norm at reference geometry: 0.94517D-04

 Normal Modes

                              1 A`        2 A`        3 A``       4 A`        5 A``
 Wavenumbers [cm-1]         1535.08     1535.38     1535.57     1761.95     1762.26
 Intensities [km/mol]         12.06       12.07       12.05        0.00        0.00
 Intensities [relative]       99.96      100.00       99.89        0.00        0.00
           CX1             -0.11255    -0.01344    -0.00000     0.00005    -0.00000
           CY1              0.00000     0.00000    -0.11334    -0.00000    -0.00006
           CZ1              0.01344    -0.11255    -0.00000     0.00002    -0.00000
           H1X2             0.51187    -0.13540    -0.00000     0.47277    -0.00000
           H1Y2            -0.00000    -0.00000     0.55624     0.00000     0.49832
           H1Z2            -0.18979    -0.05842    -0.00000    -0.15596     0.00000
           H2X3             0.10732     0.33276     0.00000     0.30464    -0.00000
           H2Y3            -0.00000    -0.00000     0.55669    -0.00000    -0.49780
           H2Z3             0.27876     0.34618     0.00000     0.39372    -0.00000
           H3X4             0.36099    -0.01859    -0.29599    -0.38900     0.14546
           H3Y4            -0.28294    -0.12489     0.11883     0.28766     0.00009
           H3Z4            -0.12459     0.52670    -0.09023    -0.11899    -0.47627
           H4X5             0.36099    -0.01859     0.29599    -0.38900    -0.14546
           H4Y5             0.28294     0.12489     0.11883    -0.28766     0.00009
           H4Z5            -0.12459     0.52670     0.09023    -0.11899     0.47627

                              6 A`        7 A`        8 A`        9 A``
 Wavenumbers [cm-1]         3281.92     3519.61     3519.86     3519.90
 Intensities [km/mol]          0.00        0.87        0.86        0.86
 Intensities [relative]        0.00        7.17        7.15        7.14
           CX1             -0.00001    -0.08090    -0.03912    -0.00000
           CY1              0.00000     0.00000     0.00000    -0.08988
           CZ1              0.00002     0.03912    -0.08090    -0.00000
           H1X2             0.15605    -0.04145     0.25363     0.00000
           H1Y2             0.00000     0.00000     0.00000    -0.00824
           H1Z2             0.47277    -0.09975     0.77202     0.00000
           H2X3             0.39397     0.63314    -0.13881    -0.00000
           H2Y3            -0.00000     0.00000     0.00000    -0.00824
           H2Z3            -0.30488    -0.49206     0.09719    -0.00000
           H3X4            -0.27497     0.18620     0.17569     0.37308
           H3Y4            -0.40666     0.28635     0.26513     0.54374
           H3Z4            -0.08408     0.06282     0.04744     0.11411
           H4X5            -0.27497     0.18620     0.17569    -0.37308
           H4Y5             0.40666    -0.28635    -0.26513     0.54374
           H4Z5            -0.08408     0.06282     0.04744    -0.11411


 Normal Modes of low/zero frequencies

                                  1           2           3           4           5
 Wavenumbers [cm-1]            0.00        0.00        0.00        0.00        0.00
 Intensities [km/mol]          0.00        0.00        0.00        0.00        0.00
 Intensities [relative]        0.00        0.00        0.00        0.00        0.00
           CX1             -0.01078     0.22367    -0.01644    -0.00781    -0.08599
           CY1             -0.01525     0.07632    -0.09422    -0.09708     0.18830
           CZ1              0.21013     0.04328     0.07662     0.06700     0.07593
           H1X2             0.07024     0.31785    -0.06715     0.03996    -0.26048
           H1Y2            -0.21678     0.14562    -0.21115     0.43623     0.35647
           H1Z2             0.18339     0.01220     0.09336     0.05124     0.13353
           H2X3            -0.06300     0.16297     0.01624    -0.03860     0.02648
           H2Y3            -0.17617     0.16014     0.43090    -0.31312     0.26495
           H2Z3             0.14266    -0.03515     0.11885     0.02722     0.22124
           H3X4            -0.26438     0.31260     0.36250     0.08873     0.09723
           H3Y4             0.16593    -0.00021    -0.29822    -0.25572     0.06592
           H3Z4             0.16287     0.12273    -0.17551     0.51871     0.06889
           H4X5             0.21401     0.10125    -0.37735    -0.12133    -0.20716
           H4Y5             0.16593    -0.00021    -0.29822    -0.25572     0.06592
           H4Z5             0.35157     0.07331     0.26980    -0.32918    -0.11987

                                  6
 Wavenumbers [cm-1]            0.00
 Intensities [km/mol]          0.00
 Intensities [relative]        0.00
           CX1             -0.06681
           CY1              0.05015
           CZ1             -0.01341
           H1X2             0.46686
           H1Y2             0.06466
           H1Z2            -0.18957
           H2X3            -0.41078
           H2Y3             0.15409
           H2Z3            -0.45785
           H3X4            -0.06851
           H3Y4            -0.00905
           H3Z4             0.27850
           H4X5            -0.25487
           H4Y5            -0.00905
           H4Z5             0.31506


 Zero point energy:  0.05005483 [H]    10985.76 [1/CM]      131.42 [KJ/MOL]
 Frequency information read from record  5400.2

 Dump information in style MOLDEN to ch4_sto-3g.molpro                                                               

 Molecular orbitals read from record     2101.2  Type=RKS/CANONICAL (state 1.1)
 Occupation numbers read from record     2101.2  Type=RKS/RHF (state 1.1)
 Orbital energies read from record       2101.2  Type=RKS/CANONICAL (state 1.1)
 Redundancy group numbers read from rec  2101.2  Type=RKS/RHF (state 1.1)

 DUMP ORBITAL  1.1 AS ORBITAL    1  occ=    2.0000  eig=   -9.9924  GROUP=   2
 DUMP ORBITAL  2.1 AS ORBITAL    2  occ=    2.0000  eig=   -0.6571  GROUP=   2
 DUMP ORBITAL  3.1 AS ORBITAL    3  occ=    2.0000  eig=   -0.3563  GROUP=   2
 DUMP ORBITAL  4.1 AS ORBITAL    4  occ=    2.0000  eig=   -0.3563  GROUP=   2
 DUMP ORBITAL  5.1 AS ORBITAL    5  occ=    2.0000  eig=   -0.3562  GROUP=   2

 Total charge:      10.000000
 Frequency information read from record  5400.2

 **********************************************************************************************************************************

        KS-SCF          KS-SCF          KS-SCF          KS-SCF          KS-SCF          KS-SCF          KS-SCF          KS-SCF  
    -40.00285959    -40.00285618    -40.00285618    -40.00284435    -40.00284466    -40.00285133    -40.00285093    -40.00284976
 **********************************************************************************************************************************
 Variable memory released
