[Molden Format]
[Molpro variables]
_NUMVAR=  693.0000000000000    
_EV2006= 0.3674930886769165E-01
_EV= 0.3674932534394180E-01
_KJOULE= 0.3808798324128737E-03
_KJOULE/MOL= 0.3808798324128737E-03
_CM= 0.4556335267302901E-05
_CM-1= 0.4556335267302901E-05
_KCAL= 0.1593601117815568E-02
_KCAL/MOL= 0.1593601117815568E-02
_KELVIN2006= 0.3166828861084835E-05
_KELVIN= 0.3166814820820034E-05
_HERTZ2006= 0.1519829850815779E-15
_HERTZ= 0.1519829846011223E-15
_HZ2006= 0.1519829850815779E-15
_HZ= 0.1519829846011223E-15
_TOA2006= 0.5291772490000000    
_TOA= 0.5291772090000000    
_TOANG2006= 0.5291772490000000    
_TOANG= 0.5291772090000000    
_TORAD= 0.1745329251994330E-01
_TOCM=  219474.6306700000    
_TODEBYE=  2.541580000000000    
_TOEV2006=  27.21139610000000    
_TOEV=  27.21138390000000    
_TOHERTZ2006=  6579683899900000.    
_TOHERTZ=  6579683920700000.    
_TOHZ2006=  6579683899900000.    
_TOHZ=  6579683920700000.    
_TOK2006=  315773.3000000000    
_TOK=  315774.7000000000    
_TOKCAL=  627.5096000000000    
_TOKELVIN2006=  315773.3000000000    
_TOKELVIN=  315774.7000000000    
_TOKJ=  2625.500000000000    
_TOKJOULE=  2625.500000000000    
_ANG2006=  1.889725988578923    
_ANG=  1.889726131421507    
_ANGSTROM2006=  1.889725988578923    
_ANGSTROM=  1.889726131421507    
_IGNORE_UNDEF=  2.000000000000000    
_STRICTCHECK=  0.000000000000000    
_SEW_ONEEL=  0.000000000000000    
_CPPDONE=FALSE
_DKROLL_DONE=  0.000000000000000    
_FOCKDONE=TRUE
_GRADONE=FALSE
_HESSDONE=TRUE
_INTDONE=TRUE
_SCFDONE=TRUE
_MODUL_CUDA=FALSE
_MODUL_SLATER=FALSE
_MODUL_MRCC=FALSE
_MRCC_EXEC=
_FITC_AO_SAVED=FALSE
_FITC_MO_SAVED=FALSE
_SHARED_FS=TRUE
_LSTYP=SEWARD
_INTYP=INTS
_GEOMTYP=ZMAT
_GRADTYP=ALASKA
_DIRECT=FALSE
_SYNCM=  0.000000000000000    
_DFTNAME=B3LYP
_DFTFUNC=B88
_BASIS=6-31+G
_ZSYMEL=
_ZORIENT=  1.000000000000000    
_NELEC=  10.00000000000000    
!SPIN=  0.000000000000000    
_OPTCONV= 0.2534068862725974E-03
_QSDSTEP=  0.000000000000000    
_QSDIRC=  0.000000000000000    
_PROGRAM=FREQ
_CPUSTEP=  0.000000000000000    
_SYSSTEP=  0.000000000000000    
_WALLSTEP=  0.000000000000000    
!DFSCF=  0.000000000000000    
!SCSGRD=  0.000000000000000    
_BASINP=  610.0000000000000    
_CPUTOT=  102.5700000000000    
_CPUSORT= 0.7999999999999829E-01
_SYSSORT= 0.1000000000000068E-01
_WALLSORT= 0.2900000000372529    
_DFTEXFAC= 0.2000000000000000    
_DFTFAC= 0.7200000000000000    
_DFTFUN= -5.545037745842872    
_DFTFUNS= -6.561428953353591    
_DMX= 0.4179224426027334E-03
_DMY= 0.4212186155427844E-12
_DMZ= 0.2903766780783870E-03
_FREQUENCIES= 0.2431337919591946E-04
_ENERGY= -40.47702015749849    
_ENUC=  13.38481779438676    
_FREQSTEP=  22.00000000000000    
_GRADENERG= -40.47701710127706    
_GRADEXFAC= 0.2000000000000000    
_GRADMETHOD=  1.000000000000000    
_VIRIAL= 0.1691212288673314E-02
_GRID=  1800.200000000000    
!GRID_FREEZE= -1.000000000000000    
_GRID_SPARSITY= 0.4177109440267612E-03
_GRID_RMAX=  6.188655322926950    
_ITERATIONS=  4.000000000000000    
_LASTNELEC=  10.00000000000000    
_LASTSPIN=  0.000000000000000    
_LASTSYM=  1.000000000000000    
_MPP_PROG=  0.000000000000000    
_NGRID=  14368.00000000000    
_NPROC_MPP=  1.000000000000000    
_NPROC_SMP=  1.000000000000000    
_NUMSTEP=  0.000000000000000    
_OPTCONVMX= 0.2446528467882112E-03
_OPTCONVRMS= 0.8446896209086579E-04
_OPTGRAD= 0.1890519127865461E-03
_OPTGRADMX= 0.1823845694844698E-03
_OPTGRADRMS= 0.6301730426218201E-04
_OPTSTEP=  3.000000000000000    
_ORBITAL=  2101.200000000000    
_PI=  3.141592653589793    
_SEIG_MIN= 0.1425961289724989E-01
_SEWPROP=TRUE
_STATUS=  1.000000000000000    
_SYSTOT=  6.580000000000000    
_VERSION=  2010001.000000000    
_WALLTOT=  154.6200000000000    
_ZPE= 0.4525847722886027E-01
_DATE=17-Aug-24
_LASTORB=RKS
_MACHINE=Linux-3.10.0-1160.108.1.el7.x86_64/molmod(x86_64) 64 bit serial version
_OUTPUT=/home/ospite/Desktop/MMfP/Project6/CH4/molpro/DFT/ch4_+.xml
_PGROUP=C1
_TIME=17:01:20
_LIBMOL=/usr/local/molpro/molpros_2010_1_Linux_x86_64_i8/lib/
!SURFREC=  0.000000000000000    
!POLYREC=  0.000000000000000    
!DIPREC=  0.000000000000000    
!VSCFREC=  0.000000000000000    
!VCIREC=  0.000000000000000    
!PVCIREC=  0.000000000000000    
!VMP2REC=  0.000000000000000    
!VMCSCFREC=  0.000000000000000    
!GAREC=  0.000000000000000    
!SCFORB=  21002.00000000000    
!NEWMOL=  0.000000000000000    
!NEWSYM=  0.000000000000000    
_SLFILES=slscratch
_NGSSTO=  9.000000000000000    
_SIN=SIN
_COS=COS
_TAN=TAN
_ACOS=ACOS
_ASIN=ASIN
_ATAN=ATAN
_COSH=COSH
_SINH=SINH
_TANH=TANH
_ABS=ABS
_MOD=MOD
_ERF=ERF
_REFC=REFC
_ERFC=ERFC
_HYPOT=HYPOT
_J0=J0
_J1=J1
_JN=JN
_GAMMA=GAMMA
_LGAMMA=LGAMMA
_Y0=Y0
_Y1=Y1
_YN=YN
_EXP=EXP
_LOG=LOG
_LOG10=LOG10
_SQRT=SQRT
_INT=INT
_NINT=NINT
_MAX=MAX
_MIN=MIN
_COSMO=  0.000000000000000    
_COSMOIT=  0.000000000000000    
_COSMOES=  0.000000000000000    
_COSMOEDS=  0.000000000000000    
_COSMOEC=  0.000000000000000    
_COSMOEDCORR=  0.000000000000000    
_FEPSI=  1.000000000000000    
_SL_IsMM=  0.000000000000000    
_SL_NSYM=  0.000000000000000    
_SL_System_BitSw=  0.000000000000000    
_SL_Unique_atoms=  0.000000000000000    
_SL_GRAD=  0.000000000000000    
_SL_MAXUPD_Hess=  5.000000000000000    
_SL_N_PRINT_COD=  5.000000000000000    
_SL_PRINT_CODES=  0.000000000000000    
_SL_BasType=  0.000000000000000    
_SL_Energy_Pred=  0.000000000000000    
_SL_New_Coords=  0.000000000000000    
_SL_Total_Nuclea=  0.000000000000000    
_SL_Highest_Mltp=  0.000000000000000    
_SL_Ref_Geom=  0.000000000000000    
!LATTICE= -1.000000000000000    
!NEWLATTICE=  0.000000000000000    
!LATGRAD_VAR=FALSE
!SEW_LATTICE=  1.000000000000000    
!LOCAL=  0.000000000000000    
!SAVEOCC=  0.000000000000000    
!SAVEDOM= -1.000000000000000    
!RESTDOM= -1.000000000000000    
!SAVEDOM_HF= -1.000000000000000    
!RESTDOM_HF= -1.000000000000000    
!HESSREC=  5300.200000000000    
!FREQREC=  5400.200000000000    
!NMODREC=  5450.200000000000    
!GTASKS=  0.000000000000000    
!HTASKS=  5500.200000000000    
!THRCHG= 0.1000000000000000    
!DEBUG= -1.000000000000000    
!CFIT_CPHF=  0.000000000000000    
!RDOMAUX_CPHF=  5.000000000000000    
!THRAO_CPHF= 0.9999999999999999E-11
!THRMO_CPHF= 0.9999999999999999E-11
!THROV_CPHF= 0.1000000000000000E-11
!THRSW_CPHF= 0.1000000000000000E-09
!THRPROD_CPHF= 0.9999999999999999E-11
!THRAOPR_CPHF= 0.1000000000000000E-11
!CFIT_SCFGRD=  0.000000000000000    
!RDOMAUX_SCFGRD=  7.000000000000000    
!THRAO_SCFGRD= 0.9999999999999999E-11
!THRMO_SCFGRD= 0.9999999999999999E-11
!THROV_SCFGRD= 0.1000000000000000E-11
!THRSW_SCFGRD= 0.1000000000000000E-09
!THRPROD_SCFGRD= 0.9999999999999999E-11
!THRAOPR_SCFGRD= 0.1000000000000000E-11
!LOCFIT_SCF=  0.000000000000000    
!LOCFIT_MP2= -1.000000000000000    
_RIDOM=  0.000000000000000    
!CC2_METHOD=  0.000000000000000    
_BASIS2006=FALSE
_SVDDEL= -1.000000000000000    
_SVDDELA= -1.000000000000000    
_SVDDELP= -1.000000000000000    
_SVDDELF= -1.000000000000000    
_SVDDELS= -1.000000000000000    
_SVDDEL_ABS= -1.000000000000000    
_SVDDELA_ABS= -1.000000000000000    
_SVDDELP_ABS= -1.000000000000000    
_SVDDELF_ABS= -1.000000000000000    
_SVDDELS_ABS= -1.000000000000000    
_MAXBASIS=  0.000000000000000    
!OPT_CONICAL=  0.000000000000000    
!CLEARSP_JGRID=  0.000000000000000    
D=  1.094118319018066    
A=  109.4759652394248    
T=  119.9707729366551    
GX1=-0.9735988944052246E-04
GY1= -0.000000000000000    
GZ1= 0.5620340923682808E-04
GX2= 0.5103882582383285    
GY2= -0.000000000000000    
GZ2=  2.003629995679263    
GX3=  1.718633088533895    
GY3= -0.000000000000000    
GZ3= -1.149234513967836    
GX4= -1.113930584476023    
GY4= -1.688622770339729    
GZ4=-0.4275326115565207    
GX5= -1.113930584476023    
GY5=  1.688622770339729    
GZ5=-0.4275326115565207    
CX1=-0.9735988944052296E-04
CY1=  0.000000000000000    
CZ1= 0.5620340923682791E-04
H1X2= 0.5103882582383285    
H1Y2=  0.000000000000000    
H1Z2=  2.003629995679263    
H2X3=  1.718633088533895    
H2Y3=  0.000000000000000    
H2Z3= -1.149234513967836    
H3X4= -1.113930584476023    
H3Y4= -1.688622770339729    
H3Z4=-0.4275326115565207    
H4X5= -1.113930584476023    
H4Y5=  1.688622770339729    
H4Z5=-0.4275326115565207    
[Atoms] Angs
C     1    6        -0.0000515206       -0.0000000000        0.0000297416
H     2    1         0.2700858340       -0.0000000000        1.0602753290
H     3    1         0.9094614611       -0.0000000000       -0.6081487126
H     4    1        -0.5894666777       -0.8935806847       -0.2262405141
H     5    1        -0.5894666777        0.8935806847       -0.2262405141
[GTO]
  1 0
 s    6  1.00
  0.3047524900D+04  0.1834737091D-02
  0.4573695200D+03  0.1403732293D-01
  0.1039486800D+03  0.6884262165D-01
  0.2921015500D+02  0.2321844388D+00
  0.9286663000D+01  0.4679413476D+00
  0.3163927000D+01  0.3623119882D+00
 s    3  1.00
  0.7868272300D+01 -0.1193324245D+00
  0.1881288500D+01 -0.1608541561D+00
  0.5442492600D+00  0.1143456443D+01
 s    1  1.00
  0.1687144800D+00  0.1000000000D+01
 s    1  1.00
  0.4380000000D-01  0.1000000000D+01
 p    3  1.00
  0.7868272300D+01  0.6899906693D-01
  0.1881288500D+01  0.3164239597D+00
  0.5442492600D+00  0.7443082892D+00
 p    1  1.00
  0.1687144800D+00  0.1000000000D+01
 p    1  1.00
  0.4380000000D-01  0.1000000000D+01
  
  2 0
 s    3  1.00
  0.1873113700D+02  0.3349460400D-01
  0.2825394400D+01  0.2347269500D+00
  0.6401216900D+00  0.8137573301D+00
 s    1  1.00
  0.1612777600D+00  0.1000000000D+01
  
  3 0
 s    3  1.00
  0.1873113700D+02  0.3349460400D-01
  0.2825394400D+01  0.2347269500D+00
  0.6401216900D+00  0.8137573301D+00
 s    1  1.00
  0.1612777600D+00  0.1000000000D+01
  
  4 0
 s    3  1.00
  0.1873113700D+02  0.3349460400D-01
  0.2825394400D+01  0.2347269500D+00
  0.6401216900D+00  0.8137573301D+00
 s    1  1.00
  0.1612777600D+00  0.1000000000D+01
  
  5 0
 s    3  1.00
  0.1873113700D+02  0.3349460400D-01
  0.2825394400D+01  0.2347269500D+00
  0.6401216900D+00  0.8137573301D+00
 s    1  1.00
  0.1612777600D+00  0.1000000000D+01


[MO]
 Sym=      1.1
 Ene=     -10.1622
 Spin= Alpha
 Occup=    2.000000
1 0.99522708364060
2 0.036720657268826
3 -0.031516263082280
4 -0.001964278675033
5 0.000001392236106
6 -0.000000000000001
7 -0.000000728933697
8 -0.000004787897030
9 0.000000000000001
10 0.000002652272196
11 -0.000000923990398
12 -0.000000000000000
13 0.000000890389039
14 -0.000887679861459
15 0.006872941765798
16 -0.000887684005742
17 0.006877089115744
18 -0.000887792628078
19 0.006872956589647
20 -0.000887792628076
21 0.006872956589647
 Sym=      2.1
 Ene=      -0.6950
 Spin= Alpha
 Occup=    2.000000
1 -0.19951489505432
2 0.38130205291930
3 0.39065880920664
4 0.027366426144569
5 0.000086563180855
6 0.000000000000554
7 -0.000048045305145
8 0.000071853202850
9 0.000000000000086
10 -0.000013728867202
11 -0.000051352976462
12 -0.000000000000027
13 -0.000082429846884
14 0.13579613793999
15 0.021601561530753
16 0.13583696346014
17 0.021551312406041
18 0.13580182939707
19 0.021518814194176
20 0.13580182939774
21 0.021518814194499
 Sym=      3.1
 Ene=      -0.3921
 Spin= Alpha
 Occup=    2.000000
1 0.000000000000138
2 -0.000000000000328
3 0.000000000000919
4 0.000000000001249
5 -0.000000000771816
6 0.44883221796860
7 -0.000000000708803
8 -0.000000000351579
9 0.20445190866354
10 -0.000000000322898
11 -0.000000000063727
12 0.036945061194284
13 -0.000000000058858
14 -0.000000000593859
15 -0.000000000445899
16 -0.000000000167676
17 -0.000000000126600
18 -0.24797871521233
19 -0.18611551449121
20 0.24797871597365
21 0.18611551506041
 Sym=      4.1
 Ene=      -0.3921
 Spin= Alpha
 Occup=    2.000000
1 0.000024583524160
2 -0.000093352996065
3 0.000293273971148
4 0.000548145417717
5 0.033511882846622
6 -0.000000000649196
7 -0.44758653952034
8 0.015207447227273
9 -0.000000000295797
10 -0.20382474077317
11 0.002978841083563
12 -0.000000000053481
13 -0.037467808067995
14 -0.28793714018442
15 -0.21602591015211
16 0.18720654209925
17 0.13998489663702
18 0.050385798151277
19 0.037499433407457
20 0.050385797433978
21 0.037499432869217
 Sym=      5.1
 Ene=      -0.3919
 Spin= Alpha
 Occup=    2.000000
1 0.000046295431781
2 -0.000066525323386
3 -0.000362284072601
4 -0.000310752208000
5 0.44761857871635
6 0.000000000822310
7 0.033529383051064
8 0.20385974375424
9 0.000000000374813
10 0.015320708179635
11 0.037195947097616
12 0.000000000067850
13 0.002557917608021
14 0.096718758459694
15 0.072805120477086
16 0.23921821037188
17 0.17958865542659
18 -0.16799806243117
19 -0.12586024047914
20 -0.16799806152264
21 -0.12586023979719
 Sym=      6.1
 Ene=       0.0196
 Spin= Alpha
 Occup=    0.000000
1 -0.089120377049867
2 0.17364470346018
3 0.65766283043229
4 -1.47006482561950
5 -0.003935272793517
6 0.000000000000130
7 -0.005388142196661
8 -0.002950587192847
9 0.000000000000244
10 -0.005272250689287
11 0.036536697911772
12 -0.000000000000264
13 0.045151139190284
14 -0.016501632766649
15 0.060780543044092
16 -0.014730393612547
17 0.074118060559166
18 -0.013657399635452
19 0.087480318279882
20 -0.013657399635520
21 0.087480318279124
 Sym=      7.1
 Ene=       0.0628
 Spin= Alpha
 Occup=    0.000000
1 -0.002378590384922
2 0.003488921520067
3 0.028711114987292
4 -0.019166829185221
5 -0.086098373302486
6 0.000000000000149
7 0.16502561149637
8 -0.087570709302776
9 0.000000000000116
10 0.16276953005119
11 0.54290406732314
12 -0.000000000000916
13 -1.04575265465702
14 0.041167743324982
15 0.16855811979381
16 -0.048894047451521
17 -0.20800626397761
18 0.003264845455601
19 0.006386038725998
20 0.003264845455644
21 0.006386038726246
 Sym=      8.1
 Ene=       0.0643
 Spin= Alpha
 Occup=    0.000000
1 0.005356515470544
2 -0.008342225867783
3 -0.063630897986715
4 0.043229412566191
5 -0.16587665115112
6 0.000000000000923
7 -0.085951054794659
8 -0.16530502748723
9 0.000000000000844
10 -0.084534208776161
11 1.04425958048155
12 -0.000000000005638
13 0.54177951040837
14 -0.036280822291225
15 -0.13810184401082
16 -0.026049132416535
17 -0.094137277372865
18 0.032460720810359
19 0.14571627690873
20 0.032460720810783
21 0.14571627691020
 Sym=      9.1
 Ene=       0.0675
 Spin= Alpha
 Occup=    0.000000
1 -0.000000000000018
2 -0.000000000000009
3 -0.000000000000159
4 -0.000000000000453
5 -0.000000000000862
6 -0.19187356979231
7 -0.000000000000319
8 -0.000000000000851
9 -0.19433600390683
10 -0.000000000000368
11 0.000000000005571
12 1.17247487179039
13 0.000000000001813
14 -0.000000000000139
15 -0.000000000000404
16 -0.000000000000213
17 -0.000000000000729
18 0.045972548485297
19 0.17038348778143
20 -0.045972548484904
21 -0.17038348777944
 Sym=     10.1
 Ene=       0.1837
 Spin= Alpha
 Occup=    0.000000
1 -0.001401539359197
2 0.001631999328502
3 0.025724845288917
4 0.008396060193230
5 -0.23262552102374
6 -0.000000000000238
7 -0.22750126316891
8 -1.00860866315567
9 -0.000000000001470
10 -0.98422825711295
11 -0.23572774428767
12 -0.000000000000266
13 -0.22735281138908
14 0.15467362950701
15 1.70007127088343
16 0.037616611471327
17 0.40391075635849
18 -0.096819798791658
19 -1.07552447677140
20 -0.096819798791556
21 -1.07552447676810
 Sym=     11.1
 Ene=       0.1838
 Spin= Alpha
 Occup=    0.000000
1 -0.000159734329845
2 0.000327620568203
3 0.002197304237169
4 0.000709745755638
5 -0.22706013565640
6 0.000000000029891
7 0.23305434232044
8 -0.98344794510629
9 0.000000000130193
10 1.00936424485213
11 -0.22927208611114
12 0.000000000031525
13 0.23420877546634
14 -0.094889236748317
15 -1.04752821802390
16 0.17803626716485
17 1.96143732435173
18 -0.041735051772359
19 -0.45894906273960
20 -0.041735051800016
21 -0.45894906304300
 Sym=     12.1
 Ene=       0.1842
 Spin= Alpha
 Occup=    0.000000
1 -0.000000000000004
2 0.000000000000221
3 -0.000000000000156
4 0.000000000000671
5 0.000000000020585
6 0.32265380513921
7 -0.000000000021894
8 0.000000000090313
9 1.40998195938660
10 -0.000000000094103
11 0.000000000020871
12 0.33878691997062
13 -0.000000000021937
14 0.000000000008854
15 0.000000000098125
16 -0.000000000016472
17 -0.000000000181334
18 0.14962661166507
19 1.64006176118322
20 -0.14962661165759
21 -1.64006176110066
 Sym=     13.1
 Ene=       0.2792
 Spin= Alpha
 Occup=    0.000000
1 -0.15359896284897
2 0.19033395418518
3 3.11705460004494
4 1.85680109462941
5 -0.000600497356325
6 0.000000000000116
7 -0.002039607482858
8 0.010012403879562
9 -0.000000000000779
10 0.007820153659356
11 0.009270456907366
12 0.000000000000093
13 0.010015592537339
14 -0.079263686707691
15 -1.62235827783186
16 -0.076495138767635
17 -1.61476133041079
18 -0.073583914392296
19 -1.60102466619853
20 -0.073583914392323
21 -1.60102466619743
 Sym=     14.1
 Ene=       0.6551
 Spin= Alpha
 Occup=    0.000000
1 0.000054677193170
2 -0.000520403530368
3 -0.000259797056042
4 -0.000581030630111
5 0.77296677457144
6 -0.000000000073635
7 -0.63373859250452
8 -1.34933705786616
9 0.000000000128696
10 1.10721598692985
11 0.43389519915456
12 -0.000000000041484
13 -0.35548387657338
14 -0.12585522734089
15 -0.10959637814359
16 0.29515086918362
17 0.25767878897601
18 -0.084584368302553
19 -0.073230875482633
20 -0.084584368337571
21 -0.073230875514501
 Sym=     15.1
 Ene=       0.6552
 Spin= Alpha
 Occup=    0.000000
1 0.000407235428883
2 -0.001557264074931
3 -0.004700652890389
4 -0.006188261411362
5 -0.63371720902770
6 0.000000000124688
7 -0.77276422647586
8 1.10669910533549
9 -0.000000000218110
10 1.35011242533776
11 -0.35630308056536
12 0.000000000070427
13 -0.43404991998692
14 -0.26762345977763
15 -0.23142200838503
16 -0.027823774438093
17 -0.021607870713706
18 0.14993538283052
19 0.13259569913696
20 0.14993538289053
21 0.13259569919030
 Sym=     16.1
 Ene=       0.6559
 Spin= Alpha
 Occup=    0.000000
1 -0.000000000000017
2 -0.000000000000601
3 0.000000000001444
4 -0.000000000000328
5 -0.000000000135951
6 -1.00041020935335
7 -0.000000000049798
8 0.000000000237074
9 1.74651599104904
10 0.000000000087049
11 -0.000000000076370
12 -0.56442941430369
13 -0.000000000027945
14 -0.000000000024126
15 -0.000000000021527
16 -0.000000000025312
17 -0.000000000021905
18 0.24008636771262
19 0.21225484352247
20 -0.24008636766258
21 -0.21225484348027
 Sym=     17.1
 Ene=       0.9950
 Spin= Alpha
 Occup=    0.000000
1 0.000638107145477
2 -0.001468694722314
3 0.001130764695462
4 0.002526896966397
5 0.55942996425645
6 -0.000000000127297
7 0.20564184209890
8 -0.61687228065037
9 0.000000000140089
10 -0.22674039224909
11 -0.38616465455824
12 0.000000000088881
13 -0.14151427782072
14 -0.66210132936853
15 1.05586763216953
16 -0.68942219310715
17 1.09966359618651
18 0.68443893710804
19 -1.08445437700317
20 0.68443893752049
21 -1.08445437765881
 Sym=     18.1
 Ene=       0.9952
 Spin= Alpha
 Occup=    0.000000
1 -0.000105924493552
2 0.002267689855241
3 -0.004193741071620
4 -0.000082441059091
5 0.20545454716974
6 -0.000000000001741
7 -0.55965978892072
8 -0.22675083299407
9 0.000000000001883
10 0.61703907105195
11 -0.14173064077498
12 0.000000000001299
13 0.38598923726706
14 0.97084175007689
15 -1.54278209309195
16 -0.95292676677880
17 1.51491651522199
18 -0.010444104009537
19 0.016476362849182
20 -0.010444104003580
21 0.016476362839852
 Sym=     19.1
 Ene=       0.9958
 Spin= Alpha
 Occup=    0.000000
1 -0.000000000000003
2 -0.000000000001384
3 0.000000000004280
4 0.000000000001516
5 -0.000000000120590
6 -0.59442498653594
7 -0.000000000042230
8 0.000000000132981
9 0.65428737830401
10 0.000000000046381
11 0.000000000083108
12 0.41442999771832
13 0.000000000029184
14 0.000000000140193
15 -0.000000000223749
16 0.000000000151863
17 -0.000000000242707
18 -0.96238540616647
19 1.52951522739600
20 0.96238540587561
21 -1.52951522693630
 Sym=     20.1
 Ene=       1.0645
 Spin= Alpha
 Occup=    0.000000
1 -0.10226370969841
2 -0.37679657435217
3 0.84714754186296
4 -0.79328890655368
5 0.002353482541228
6 -0.000000000000893
7 0.000764190923890
8 -0.001824294846051
9 0.000000000000993
10 -0.000661539322408
11 -0.003448304923142
12 0.000000000000626
13 -0.002584993076923
14 -0.73763570120800
15 0.48910598579569
16 -0.73617189108940
17 0.48608340945487
18 -0.72890990005783
19 0.47494778285503
20 -0.72890990005478
21 0.47494778285036
 Sym=     21.1
 Ene=       1.1316
 Spin= Alpha
 Occup=    0.000000
1 -0.025949895461492
2 -2.39515745218536
3 5.90538865331902
4 0.68455511463454
5 -0.000460626576811
6 0.000000000000825
7 -0.000196504839641
8 0.001332928096512
9 -0.000000000000856
10 -0.000679926435337
11 0.001336398164666
12 -0.000000000000258
13 0.001618045391818
14 0.10212112646530
15 -1.60102164943069
16 0.099844151646008
17 -1.59841925441465
18 0.098915636297668
19 -1.59560628800867
20 0.098915636295919
21 -1.59560628800601
 [FREQ]
      0.00
      0.00
      0.00
      0.00
      0.00
      0.00
   1395.73
   1395.74
   1396.70
   1590.95
   1591.98
   3035.51
   3152.92
   3153.30
   3153.35
 [FR-COORD]
C         -0.0000973599       -0.0000000000        0.0000562034
H          0.5103882582       -0.0000000000        2.0036299957
H          1.7186330885       -0.0000000000       -1.1492345140
H         -1.1139305845       -1.6886227703       -0.4275326116
H         -1.1139305845        1.6886227703       -0.4275326116
 [FR-NORM-COORD]
 Vibration                    1
          0.14604819         -0.10707709         -0.03415428
         -0.23284940         -0.21512422          0.06238410
          0.36339156         -0.00565204          0.29087633
          0.26002413         -0.10372450         -0.34429205
          0.19379565         -0.10372450         -0.14529246
 Vibration                    2
          0.01942483          0.01749760          0.03895347
          0.03244256          0.29068390          0.03563671
          0.01195760          0.42894129          0.02778644
          0.49358566         -0.32462735          0.15491510
         -0.46029231         -0.32462735         -0.06253445
 Vibration                    3
          0.01260526          0.02292007          0.10285092
         -0.20842175          0.44995189          0.15916585
          0.13939084         -0.36955226          0.29245504
         -0.06406050          0.00547982          0.37143341
          0.18361111          0.00547982         -0.41147965
 Vibration                    4
          0.00074204          0.05141396          0.20252947
         -0.08583347         -0.26350621          0.22458783
          0.05040352          0.21777604          0.27679675
          0.00722875          0.12575700         -0.10796148
          0.03120803          0.12575700          0.41676173
 Vibration                    5
          0.14137495         -0.09323526          0.07280477
          0.52713493         -0.03321859         -0.02548206
         -0.07990483         -0.19338665         -0.25811262
          0.00387548         -0.07321034          0.35189754
          0.11422199         -0.07321034          0.22261788
 Vibration                    6
          0.14310729          0.19672368         -0.05246422
          0.16692013          0.17463869         -0.05853143
          0.12944776          0.17001291         -0.07289164
          0.10496803          0.22110910         -0.04941688
          0.17108261          0.22110910         -0.02903534
 Vibration                    7
          0.00000000         -0.11590588          0.00000000
         -0.00000000          0.55737096          0.00000000
         -0.00000000          0.55463052         -0.00000000
         -0.27773268          0.13458872         -0.10784080
          0.27773268          0.13458872          0.10784080
 Vibration                    8
         -0.10057829         -0.00000000         -0.05764928
          0.37313878          0.00000000         -0.14973909
          0.24833229          0.00000000          0.43206671
          0.28852921         -0.29461999          0.20232167
          0.28852921          0.29461999          0.20232167
 Vibration                    9
          0.05767342          0.00000000         -0.10055867
         -0.38808402         -0.00000000          0.04260757
          0.19410196         -0.00000000          0.16796738
         -0.24663826          0.04591662          0.49386040
         -0.24663826         -0.04591662          0.49386040
 Vibration                   10
         -0.00016729          0.00000000          0.00000560
          0.48327260         -0.00000000         -0.12321510
          0.27710645          0.00000000          0.41451493
         -0.37919276          0.28701543         -0.14568326
         -0.37919276         -0.28701543         -0.14568326
 Vibration                   11
         -0.00000000         -0.00029866          0.00000000
         -0.00000000         -0.49658106          0.00000000
         -0.00000000          0.49958610         -0.00000000
         -0.17900368          0.00027696          0.46468144
          0.17900368          0.00027696         -0.46468144
 Vibration                   12
          0.00009794         -0.00000000          0.00002510
          0.12288974         -0.00000000          0.48218613
          0.41329790         -0.00000000         -0.27627662
         -0.26867736         -0.40726962         -0.10310433
         -0.26867736          0.40726962         -0.10310433
 Vibration                   13
         -0.08648717         -0.00000000         -0.00116293
          0.03000111         -0.00000000          0.21349120
          0.55594788         -0.00000000         -0.38845112
          0.22233267          0.37405274          0.09440895
          0.22233267         -0.37405274          0.09440895
 Vibration                   14
          0.00114745         -0.00000000         -0.08652607
          0.20227332         -0.00000000          0.76786128
         -0.39848291         -0.00000000          0.24232077
          0.09126806          0.13780471          0.01044788
          0.09126806         -0.13780471          0.01044788
 Vibration                   15
          0.00000000         -0.08654096          0.00000000
         -0.00000000         -0.02444360         -0.00000000
          0.00000000         -0.02450761         -0.00000000
          0.37242481          0.54010327          0.14292488
         -0.37242481          0.54010327         -0.14292488
