 Entering Gaussian System, Link 0=/programs/64bit/g09/g09-gfortran/bin/g09
 Input=nh3_opt.com
 Output=nh3_opt.log
 Initial command:
 /programs/64bit/g09/g09-gfortran/bin/l1.exe /home/ospite/Desktop/MMfP/Project9/NH3/reactants/NH3/Gau-31242.inp -scrdir=/home/ospite/Desktop/MMfP/Project9/NH3/reactants/NH3/
 Entering Link 1 = /programs/64bit/g09/g09-gfortran/bin/l1.exe PID=     31243.
  
 Copyright (c) 1988,1990,1992,1993,1995,1998,2003,2009, Gaussian, Inc.
                  All Rights Reserved.
  
 This is part of the Gaussian(R) 09 program.  It is based on
 the Gaussian(R) 03 system (copyright 2003, Gaussian, Inc.),
 the Gaussian(R) 98 system (copyright 1998, Gaussian, Inc.),
 the Gaussian(R) 94 system (copyright 1995, Gaussian, Inc.),
 the Gaussian 92(TM) system (copyright 1992, Gaussian, Inc.),
 the Gaussian 90(TM) system (copyright 1990, Gaussian, Inc.),
 the Gaussian 88(TM) system (copyright 1988, Gaussian, Inc.),
 the Gaussian 86(TM) system (copyright 1986, Carnegie Mellon
 University), and the Gaussian 82(TM) system (copyright 1983,
 Carnegie Mellon University). Gaussian is a federally registered
 trademark of Gaussian, Inc.
  
 This software contains proprietary and confidential information,
 including trade secrets, belonging to Gaussian, Inc.
  
 This software is provided under written license and may be
 used, copied, transmitted, or stored only in accord with that
 written license.
  
 The following legend is applicable only to US Government
 contracts under FAR:
  
                    RESTRICTED RIGHTS LEGEND
  
 Use, reproduction and disclosure by the US Government is
 subject to restrictions as set forth in subparagraphs (a)
 and (c) of the Commercial Computer Software - Restricted
 Rights clause in FAR 52.227-19.
  
 Gaussian, Inc.
 340 Quinnipiac St., Bldg. 40, Wallingford CT 06492
  
  
 ---------------------------------------------------------------
 Warning -- This program may not be used in any manner that
 competes with the business of Gaussian, Inc. or will provide
 assistance to any competitor of Gaussian, Inc.  The licensee
 of this program is prohibited from giving any competitor of
 Gaussian, Inc. access to this program.  By using this program,
 the user acknowledges that Gaussian, Inc. is engaged in the
 business of creating and licensing software in the field of
 computational chemistry and represents and warrants to the
 licensee that it is not a competitor of Gaussian, Inc. and that
 it will not use this program in any manner prohibited above.
 ---------------------------------------------------------------
  

 Cite this work as:
 Gaussian 09, Revision A.02,
 M. J. Frisch, G. W. Trucks, H. B. Schlegel, G. E. Scuseria, 
 M. A. Robb, J. R. Cheeseman, G. Scalmani, V. Barone, B. Mennucci, 
 G. A. Petersson, H. Nakatsuji, M. Caricato, X. Li, H. P. Hratchian, 
 A. F. Izmaylov, J. Bloino, G. Zheng, J. L. Sonnenberg, M. Hada, 
 M. Ehara, K. Toyota, R. Fukuda, J. Hasegawa, M. Ishida, T. Nakajima, 
 Y. Honda, O. Kitao, H. Nakai, T. Vreven, J. A. Montgomery, Jr., 
 J. E. Peralta, F. Ogliaro, M. Bearpark, J. J. Heyd, E. Brothers, 
 K. N. Kudin, V. N. Staroverov, R. Kobayashi, J. Normand, 
 K. Raghavachari, A. Rendell, J. C. Burant, S. S. Iyengar, J. Tomasi, 
 M. Cossi, N. Rega, J. M. Millam, M. Klene, J. E. Knox, J. B. Cross, 
 V. Bakken, C. Adamo, J. Jaramillo, R. Gomperts, R. E. Stratmann, 
 O. Yazyev, A. J. Austin, R. Cammi, C. Pomelli, J. W. Ochterski, 
 R. L. Martin, K. Morokuma, V. G. Zakrzewski, G. A. Voth, 
 P. Salvador, J. J. Dannenberg, S. Dapprich, A. D. Daniels, 
 O. Farkas, J. B. Foresman, J. V. Ortiz, J. Cioslowski, 
 and D. J. Fox, Gaussian, Inc., Wallingford CT, 2009.
 
 ******************************************
 Gaussian 09:  EM64L-G09RevA.02 11-Jun-2009
                15-Sep-2024 
 ******************************************
 %mem=100MB
 -----------------------------------------
 #p b3lyp/6-31+G opt freq pop=full gfinput
 -----------------------------------------
 1/14=-1,18=20,19=15,26=3,38=1/1,3;
 2/9=110,12=2,17=6,18=5,40=1/2;
 3/5=1,6=6,7=10,11=2,16=1,24=10,25=1,30=1,71=1,74=-5/1,2,3;
 4//1;
 5/5=2,38=5/2;
 6/7=3,28=1/1;
 7//1,2,3,16;
 1/14=-1,18=20,19=15/3(2);
 2/9=110/2;
 99//99;
 2/9=110/2;
 3/5=1,6=6,7=10,11=2,16=1,25=1,30=1,71=1,74=-5/1,2,3;
 4/5=5,16=3/1;
 5/5=2,38=5/2;
 7//1,2,3,16;
 1/14=-1,18=20,19=15/3(-5);
 2/9=110/2;
 6/7=3,19=2,28=1/1;
 99/9=1/99;
 Leave Link    1 at Sun Sep 15 16:41:02 2024, MaxMem=   13107200 cpu:       0.1
 (Enter /programs/64bit/g09/g09-gfortran/bin/l101.exe)
 -------------------------
 NH3 with 6-31+G basis set
 -------------------------
 Symbolic Z-matrix:
 Charge =  0 Multiplicity = 1
 n
 h                    1    hn2
 h                    1    hn3      2    hnh3
 h                    1    hn4      3    hnh4     2    dih4     0
       Variables:
  hn2                   1.03                     
  hn3                   1.03                     
  hnh3                109.471                    
  hn4                   1.03                     
  hnh4                109.471                    
  dih4                180.                       
 
     2 tetrahedral angles replaced.
 NAtoms=      4 NQM=      4 NQMF=      0 NMic=      0 NMicF=      0 NTot=      4.
                    Isotopes and Nuclear Properties:
 (Nuclear quadrupole moments (NQMom) in fm**2, nuclear magnetic moments (NMagM)
  in nuclear magnetons)

  Atom         1           2           3           4
 IAtWgt=          14           1           1           1
 AtmWgt=  14.0030740   1.0078250   1.0078250   1.0078250
 NucSpn=           2           1           1           1
 AtZEff=   0.0000000   0.0000000   0.0000000   0.0000000
 NQMom=    2.0440000   0.0000000   0.0000000   0.0000000
 NMagM=    0.4037610   2.7928460   2.7928460   2.7928460
 Leave Link  101 at Sun Sep 15 16:41:02 2024, MaxMem=   13107200 cpu:       0.2
 (Enter /programs/64bit/g09/g09-gfortran/bin/l103.exe)

 GradGradGradGradGradGradGradGradGradGradGradGradGradGradGradGradGradGrad
 Berny optimization.
 Initialization pass.
                           ----------------------------
                           !    Initial Parameters    !
                           ! (Angstroms and Degrees)  !
 --------------------------                            --------------------------
 ! Name  Definition              Value          Derivative Info.                !
 --------------------------------------------------------------------------------
 ! R1    R(1,2)                  1.03           estimate D2E/DX2                !
 ! R2    R(1,3)                  1.03           estimate D2E/DX2                !
 ! R3    R(1,4)                  1.03           estimate D2E/DX2                !
 ! A1    A(2,1,3)              109.4712         estimate D2E/DX2                !
 ! A2    A(2,1,4)              141.0576         estimate D2E/DX2                !
 ! A3    A(3,1,4)              109.4712         estimate D2E/DX2                !
 ! D1    D(2,1,4,3)            180.0            estimate D2E/DX2                !
 --------------------------------------------------------------------------------
 Trust Radius=3.00D-01 FncErr=1.00D-07 GrdErr=1.00D-06
 Number of steps in this run=  20 maximum allowed number of steps= 100.
 GradGradGradGradGradGradGradGradGradGradGradGradGradGradGradGradGradGrad

 Leave Link  103 at Sun Sep 15 16:41:02 2024, MaxMem=   13107200 cpu:       0.0
 (Enter /programs/64bit/g09/g09-gfortran/bin/l202.exe)
                          Input orientation:                          
 ---------------------------------------------------------------------
 Center     Atomic      Atomic             Coordinates (Angstroms)
 Number     Number       Type             X           Y           Z
 ---------------------------------------------------------------------
      1          7           0        0.000000    0.000000    0.000000
      2          1           0        0.000000    0.000000    1.030000
      3          1           0        0.971093    0.000000   -0.343333
      4          1           0       -0.647396    0.000000   -0.801111
 ---------------------------------------------------------------------
                    Distance matrix (angstroms):
                    1          2          3          4
     1  N    0.000000
     2  H    1.030000   0.000000
     3  H    1.030000   1.681983   0.000000
     4  H    1.030000   1.942187   1.681983   0.000000
 Stoichiometry    H3N
 Framework group  C2V[C2(HN),SGV(H2)]
 Deg. of freedom     3
 Full point group                 C2V     NOp   4
 Largest Abelian subgroup         C2V     NOp   4
 Largest concise Abelian subgroup C2      NOp   2
                         Standard orientation:                         
 ---------------------------------------------------------------------
 Center     Atomic      Atomic             Coordinates (Angstroms)
 Number     Number       Type             X           Y           Z
 ---------------------------------------------------------------------
      1          7           0       -0.000000    0.000000    0.034333
      2          1           0        0.000000    0.971093    0.377667
      3          1           0        0.000000   -0.000000   -0.995667
      4          1           0       -0.000000   -0.971093    0.377667
 ---------------------------------------------------------------------
 Rotational constants (GHZ):    388.8218764    265.8766085    157.9026746
 Leave Link  202 at Sun Sep 15 16:41:02 2024, MaxMem=   13107200 cpu:       0.0
 (Enter /programs/64bit/g09/g09-gfortran/bin/l301.exe)
 Standard basis: 6-31+G (6D, 7F)
 Ernie: Thresh=  0.10000D-02 Tol=  0.10000D-05 Strict=F.
 AO basis set in the form of general basis input (Overlap normalization):
      1 0
 S   6 1.00       0.000000000000
      0.4173511460D+04  0.1834772160D-02
      0.6274579110D+03  0.1399462700D-01
      0.1429020930D+03  0.6858655181D-01
      0.4023432930D+02  0.2322408730D+00
      0.1282021290D+02  0.4690699481D+00
      0.4390437010D+01  0.3604551991D+00
 SP   3 1.00       0.000000000000
      0.1162636186D+02 -0.1149611817D+00  0.6757974388D-01
      0.2716279807D+01 -0.1691174786D+00  0.3239072959D+00
      0.7722183966D+00  0.1145851947D+01  0.7408951398D+00
 SP   1 1.00       0.000000000000
      0.2120314975D+00  0.1000000000D+01  0.1000000000D+01
 SP   1 1.00       0.000000000000
      0.6390000000D-01  0.1000000000D+01  0.1000000000D+01
 ****
      2 0
 S   3 1.00       0.000000000000
      0.1873113696D+02  0.3349460434D-01
      0.2825394365D+01  0.2347269535D+00
      0.6401216923D+00  0.8137573261D+00
 S   1 1.00       0.000000000000
      0.1612777588D+00  0.1000000000D+01
 ****
      3 0
 S   3 1.00       0.000000000000
      0.1873113696D+02  0.3349460434D-01
      0.2825394365D+01  0.2347269535D+00
      0.6401216923D+00  0.8137573261D+00
 S   1 1.00       0.000000000000
      0.1612777588D+00  0.1000000000D+01
 ****
      4 0
 S   3 1.00       0.000000000000
      0.1873113696D+02  0.3349460434D-01
      0.2825394365D+01  0.2347269535D+00
      0.6401216923D+00  0.8137573261D+00
 S   1 1.00       0.000000000000
      0.1612777588D+00  0.1000000000D+01
 ****

 There are    11 symmetry adapted basis functions of A1  symmetry.
 There are     0 symmetry adapted basis functions of A2  symmetry.
 There are     3 symmetry adapted basis functions of B1  symmetry.
 There are     5 symmetry adapted basis functions of B2  symmetry.
 Integral buffers will be    131072 words long.
 Raffenetti 2 integral format.
 Two-electron integral symmetry is turned on.
    19 basis functions,    38 primitive gaussians,    19 cartesian basis functions
     5 alpha electrons        5 beta electrons
       nuclear repulsion energy        11.6907447060 Hartrees.
 IExCor=  402 DFT=T Ex+Corr=B3LYP ExCW=0 ScaHFX=  0.200000
 ScaDFX=  0.800000  0.720000  1.000000  0.810000 ScalE2=  1.000000  1.000000
 IRadAn=      0 IRanWt=     -1 IRanGd=            0 ICorTp=0
 NAtoms=    4 NActive=    4 NUniq=    3 SFac= 1.33D+00 NAtFMM=   80 NAOKFM=F Big=F
 Leave Link  301 at Sun Sep 15 16:41:02 2024, MaxMem=   13107200 cpu:       0.1
 (Enter /programs/64bit/g09/g09-gfortran/bin/l302.exe)
 NPDir=0 NMtPBC=     1 NCelOv=     1 NCel=       1 NClECP=     1 NCelD=      1
         NCelK=      1 NCelE2=     1 NClLst=     1 CellRange=     0.0.
 One-electron integrals computed using PRISM.
 One-electron integral symmetry used in STVInt
 NBasis=    19 RedAO= T  NBF=    11     0     3     5
 NBsUse=    19 1.00D-06 NBFU=    11     0     3     5
 Precomputing XC quadrature grid using
 IXCGrd= 2 IRadAn=           0 IRanWt=          -1 IRanGd=           0 AccXCQ= 1.00D-10.
 NRdTot=     252 NPtTot=       31966 NUsed=       33795 NTot=       33827
 NSgBfM=    19    19    19    19    19 NAtAll=     4     4.
 Leave Link  302 at Sun Sep 15 16:41:02 2024, MaxMem=   13107200 cpu:       0.2
 (Enter /programs/64bit/g09/g09-gfortran/bin/l303.exe)
 DipDrv:  MaxL=1.
 Leave Link  303 at Sun Sep 15 16:41:02 2024, MaxMem=   13107200 cpu:       0.0
 (Enter /programs/64bit/g09/g09-gfortran/bin/l401.exe)
 Harris functional with IExCor=  402 diagonalized for initial guess.
 ExpMin= 6.39D-02 ExpMax= 4.17D+03 ExpMxC= 6.27D+02 IAcc=2 IRadAn=         0 AccDes= 0.00D+00
 HarFok:  IExCor=  402 AccDes= 0.00D+00 IRadAn=         0 IDoV= 1
 ScaDFX=  1.000000  1.000000  1.000000  1.000000
 FoFCou: FMM=F IPFlag=           0 FMFlag=      100000 FMFlg1=           0
         NFxFlg=           0 DoJE=T BraDBF=F KetDBF=T FulRan=T
         Omega=  0.000000  0.000000  1.000000  0.000000  0.000000 ICntrl=     500 IOpCl=  0
         NMat0=    1 NMatS0=    1 NMatT0=    0 NMatD0=    1 NMtDS0=    0 NMtDT0=    0
         I1Cent=           4 NGrid=           0.
 Petite list used in FoFCou.
 Harris En= -56.5701775815175    
 Initial guess orbital symmetries:
       Occupied  (A1) (A1) (B2) (A1) (B1)
       Virtual   (A1) (B2) (A1) (B1) (A1) (A1) (B2) (A1) (B1) (B2)
                 (A1) (A1) (B2) (A1)
 The electronic state of the initial guess is 1-A1.
 Leave Link  401 at Sun Sep 15 16:41:03 2024, MaxMem=   13107200 cpu:       0.3
 (Enter /programs/64bit/g09/g09-gfortran/bin/l502.exe)
 Closed shell SCF:
 Requested convergence on RMS density matrix=1.00D-08 within 128 cycles.
 Requested convergence on MAX density matrix=1.00D-06.
 Requested convergence on             energy=1.00D-06.
 No special actions if energy rises.
 Using DIIS extrapolation, IDIIS=  1040.
 Integral symmetry usage will be decided dynamically.
        33746 words used for storage of precomputed grid.
 Keep R1 ints in memory in canonical form, NReq=929680.
 IEnd=       53553 IEndB=       53553 NGot=    13107200 MDV=    13052577
 LenX=    13052577 LenY=    13051695
 Symmetry not used in FoFDir.
 MinBra= 0 MaxBra= 1 Meth= 1.
 IRaf=       0 NMat=   1 IRICut=       1 DoRegI=T DoRafI=F ISym2E= 0 JSym2E=0.
 Integral accuracy reduced to 1.0D-05 until final iterations.

 Cycle   1  Pass 0  IDiag  1:
 E= -56.4353095611453    
 DIIS: error= 6.79D-02 at cycle   1 NSaved=   1.
 NSaved= 1 IEnMin= 1 EnMin= -56.4353095611453     IErMin= 1 ErrMin= 6.79D-02
 ErrMax= 6.79D-02 EMaxC= 1.00D-01 BMatC= 1.05D-01 BMatP= 1.05D-01
 IDIUse=3 WtCom= 3.21D-01 WtEn= 6.79D-01
 Coeff-Com:  0.100D+01
 Coeff-En:   0.100D+01
 Coeff:      0.100D+01
 Gap=     0.119 Goal=   None    Shift=    0.000
 GapD=    0.119 DampG=1.000 DampE=0.500 DampFc=0.5000 IDamp=-1.
 Damping current iteration by 5.00D-01
 RMSDP=2.93D-02 MaxDP=2.44D-01              OVMax= 3.20D-01

 Cycle   2  Pass 0  IDiag  1:
 E= -56.4548973244284     Delta-E=       -0.019587763283 Rises=F Damp=T
 DIIS: error= 2.54D-02 at cycle   2 NSaved=   2.
 NSaved= 2 IEnMin= 2 EnMin= -56.4548973244284     IErMin= 2 ErrMin= 2.54D-02
 ErrMax= 2.54D-02 EMaxC= 1.00D-01 BMatC= 1.06D-02 BMatP= 1.05D-01
 IDIUse=3 WtCom= 7.46D-01 WtEn= 2.54D-01
 Coeff-Com:  0.236D+00 0.764D+00
 Coeff-En:   0.406D+00 0.594D+00
 Coeff:      0.279D+00 0.721D+00
 Gap=     0.242 Goal=   None    Shift=    0.000
 RMSDP=4.36D-03 MaxDP=4.23D-02 DE=-1.96D-02 OVMax= 2.04D-01

 Cycle   3  Pass 0  IDiag  1:
 E= -56.5309541022711     Delta-E=       -0.076056777843 Rises=F Damp=F
 DIIS: error= 3.14D-03 at cycle   3 NSaved=   3.
 NSaved= 3 IEnMin= 3 EnMin= -56.5309541022711     IErMin= 3 ErrMin= 3.14D-03
 ErrMax= 3.14D-03 EMaxC= 1.00D-01 BMatC= 2.18D-04 BMatP= 1.06D-02
 IDIUse=3 WtCom= 9.69D-01 WtEn= 3.14D-02
 Coeff-Com:  0.323D-01-0.412D-01 0.101D+01
 Coeff-En:   0.000D+00 0.000D+00 0.100D+01
 Coeff:      0.313D-01-0.399D-01 0.101D+01
 Gap=     0.262 Goal=   None    Shift=    0.000
 RMSDP=4.17D-04 MaxDP=4.14D-03 DE=-7.61D-02 OVMax= 3.30D-03

 Cycle   4  Pass 0  IDiag  1:
 E= -56.5311257723437     Delta-E=       -0.000171670073 Rises=F Damp=F
 DIIS: error= 4.06D-04 at cycle   4 NSaved=   4.
 NSaved= 4 IEnMin= 4 EnMin= -56.5311257723437     IErMin= 4 ErrMin= 4.06D-04
 ErrMax= 4.06D-04 EMaxC= 1.00D-01 BMatC= 2.70D-06 BMatP= 2.18D-04
 IDIUse=3 WtCom= 9.96D-01 WtEn= 4.06D-03
 Coeff-Com:  0.507D-02-0.632D-02 0.502D-01 0.951D+00
 Coeff-En:   0.000D+00 0.000D+00 0.000D+00 0.100D+01
 Coeff:      0.505D-02-0.630D-02 0.500D-01 0.951D+00
 Gap=     0.263 Goal=   None    Shift=    0.000
 RMSDP=5.66D-05 MaxDP=5.13D-04 DE=-1.72D-04 OVMax= 6.45D-04

 Cycle   5  Pass 0  IDiag  1:
 E= -56.5311283370401     Delta-E=       -0.000002564696 Rises=F Damp=F
 DIIS: error= 3.45D-05 at cycle   5 NSaved=   5.
 NSaved= 5 IEnMin= 5 EnMin= -56.5311283370401     IErMin= 5 ErrMin= 3.45D-05
 ErrMax= 3.45D-05 EMaxC= 1.00D-01 BMatC= 1.94D-08 BMatP= 2.70D-06
 IDIUse=1 WtCom= 1.00D+00 WtEn= 0.00D+00
 Coeff-Com:  0.214D-03-0.263D-03-0.528D-03-0.240D-01 0.102D+01
 Coeff:      0.214D-03-0.263D-03-0.528D-03-0.240D-01 0.102D+01
 Gap=     0.263 Goal=   None    Shift=    0.000
 RMSDP=4.98D-06 MaxDP=4.81D-05 DE=-2.56D-06 OVMax= 5.77D-05

 Initial convergence to 1.0D-05 achieved.  Increase integral accuracy.
 Cycle   6  Pass 1  IDiag  1:
 E= -56.5311413192192     Delta-E=       -0.000012982179 Rises=F Damp=F
 DIIS: error= 1.07D-05 at cycle   1 NSaved=   1.
 NSaved= 1 IEnMin= 1 EnMin= -56.5311413192192     IErMin= 1 ErrMin= 1.07D-05
 ErrMax= 1.07D-05 EMaxC= 1.00D-01 BMatC= 8.65D-10 BMatP= 8.65D-10
 IDIUse=1 WtCom= 1.00D+00 WtEn= 0.00D+00
 Coeff-Com:  0.100D+01
 Coeff:      0.100D+01
 Gap=     0.263 Goal=   None    Shift=    0.000
 RMSDP=4.98D-06 MaxDP=4.81D-05 DE=-1.30D-05 OVMax= 7.38D-05

 Cycle   7  Pass 1  IDiag  1:
 E= -56.5311413231937     Delta-E=       -0.000000003975 Rises=F Damp=F
 DIIS: error= 5.16D-06 at cycle   2 NSaved=   2.
 NSaved= 2 IEnMin= 2 EnMin= -56.5311413231937     IErMin= 2 ErrMin= 5.16D-06
 ErrMax= 5.16D-06 EMaxC= 1.00D-01 BMatC= 5.71D-10 BMatP= 8.65D-10
 IDIUse=1 WtCom= 1.00D+00 WtEn= 0.00D+00
 Coeff-Com:  0.401D+00 0.599D+00
 Coeff:      0.401D+00 0.599D+00
 Gap=     0.263 Goal=   None    Shift=    0.000
 RMSDP=1.15D-06 MaxDP=8.68D-06 DE=-3.97D-09 OVMax= 1.07D-05

 Cycle   8  Pass 1  IDiag  1:
 E= -56.5311413235817     Delta-E=       -0.000000000388 Rises=F Damp=F
 DIIS: error= 3.31D-06 at cycle   3 NSaved=   3.
 NSaved= 3 IEnMin= 3 EnMin= -56.5311413235817     IErMin= 3 ErrMin= 3.31D-06
 ErrMax= 3.31D-06 EMaxC= 1.00D-01 BMatC= 1.50D-10 BMatP= 5.71D-10
 IDIUse=1 WtCom= 1.00D+00 WtEn= 0.00D+00
 Coeff-Com: -0.617D-01 0.351D+00 0.711D+00
 Coeff:     -0.617D-01 0.351D+00 0.711D+00
 Gap=     0.263 Goal=   None    Shift=    0.000
 RMSDP=5.38D-07 MaxDP=4.77D-06 DE=-3.88D-10 OVMax= 7.23D-06

 Cycle   9  Pass 1  IDiag  1:
 E= -56.5311413237310     Delta-E=       -0.000000000149 Rises=F Damp=F
 DIIS: error= 1.42D-07 at cycle   4 NSaved=   4.
 NSaved= 4 IEnMin= 4 EnMin= -56.5311413237310     IErMin= 4 ErrMin= 1.42D-07
 ErrMax= 1.42D-07 EMaxC= 1.00D-01 BMatC= 1.49D-13 BMatP= 1.50D-10
 IDIUse=1 WtCom= 1.00D+00 WtEn= 0.00D+00
 Coeff-Com: -0.185D-02 0.112D-03-0.290D-01 0.103D+01
 Coeff:     -0.185D-02 0.112D-03-0.290D-01 0.103D+01
 Gap=     0.263 Goal=   None    Shift=    0.000
 RMSDP=2.86D-08 MaxDP=2.84D-07 DE=-1.49D-10 OVMax= 4.12D-07

 Cycle  10  Pass 1  IDiag  1:
 E= -56.5311413237311     Delta-E=       -0.000000000000 Rises=F Damp=F
 DIIS: error= 6.07D-09 at cycle   5 NSaved=   5.
 NSaved= 5 IEnMin= 5 EnMin= -56.5311413237311     IErMin= 5 ErrMin= 6.07D-09
 ErrMax= 6.07D-09 EMaxC= 1.00D-01 BMatC= 5.62D-16 BMatP= 1.49D-13
 IDIUse=1 WtCom= 1.00D+00 WtEn= 0.00D+00
 Coeff-Com:  0.363D-03-0.216D-02-0.158D-02-0.355D-01 0.104D+01
 Coeff:      0.363D-03-0.216D-02-0.158D-02-0.355D-01 0.104D+01
 Gap=     0.263 Goal=   None    Shift=    0.000
 RMSDP=1.30D-09 MaxDP=8.33D-09 DE=-1.14D-13 OVMax= 1.09D-08

 SCF Done:  E(RB3LYP) =  -56.5311413237     A.U. after   10 cycles
             Convg  =    0.1298D-08             -V/T =  2.0090
 KE= 5.602504929455D+01 PE=-1.551336447227D+02 EE= 3.088670939847D+01
 Leave Link  502 at Sun Sep 15 16:41:04 2024, MaxMem=   13107200 cpu:       1.0
 (Enter /programs/64bit/g09/g09-gfortran/bin/l601.exe)
 Copying SCF densities to generalized density rwf, IOpCl= 0 IROHF=0.

 **********************************************************************

            Population analysis using the SCF density.

 **********************************************************************

 Orbital symmetries:
       Occupied  (A1) (A1) (B2) (A1) (B1)
       Virtual   (A1) (B2) (A1) (B1) (A1) (A1) (B2) (A1) (B1) (B2)
                 (A1) (A1) (B2) (A1)
 The electronic state is 1-A1.
 Alpha  occ. eigenvalues --  -14.31228  -0.83566  -0.50919  -0.44956  -0.23889
 Alpha virt. eigenvalues --    0.02374   0.07705   0.09232   0.11754   0.14963
 Alpha virt. eigenvalues --    0.22088   0.24598   0.85695   0.88241   0.88301
 Alpha virt. eigenvalues --    0.94010   1.05891   1.13819   1.18374
     Molecular Orbital Coefficients:
                           1         2         3         4         5
                        (A1)--O   (A1)--O   (B2)--O   (A1)--O   (B1)--O
     Eigenvalues --   -14.31228  -0.83566  -0.50919  -0.44956  -0.23889
   1 1   N  1S          0.99514  -0.20435   0.00000  -0.01596   0.00000
   2        2S          0.03054   0.43391   0.00000   0.03689   0.00000
   3        2PX         0.00000   0.00000   0.00000   0.00000   0.59808
   4        2PY         0.00000   0.00000   0.47916   0.00000   0.00000
   5        2PZ        -0.00032  -0.03313   0.00000   0.48522   0.00000
   6        3S         -0.01705   0.43810   0.00000   0.04397   0.00000
   7        3PX         0.00000   0.00000   0.00000   0.00000   0.45547
   8        3PY         0.00000   0.00000   0.24995   0.00000   0.00000
   9        3PZ         0.00080  -0.02034   0.00000   0.25016   0.00000
  10        4S          0.00022   0.02457   0.00000   0.00425   0.00000
  11        4PX         0.00000   0.00000   0.00000   0.00000   0.15884
  12        4PY         0.00000   0.00000   0.03591   0.00000   0.00000
  13        4PZ         0.00049  -0.00407   0.00000   0.03417   0.00000
  14 2   H  1S         -0.00044   0.14068   0.25359   0.13987   0.00000
  15        2S          0.00306   0.00701   0.09360   0.07892   0.00000
  16 3   H  1S         -0.00044   0.14734   0.00000  -0.29686   0.00000
  17        2S          0.00405  -0.00174   0.00000  -0.16623   0.00000
  18 4   H  1S         -0.00044   0.14068  -0.25359   0.13987   0.00000
  19        2S          0.00306   0.00701  -0.09360   0.07892   0.00000
                           6         7         8         9        10
                        (A1)--V   (B2)--V   (A1)--V   (B1)--V   (A1)--V
     Eigenvalues --     0.02374   0.07705   0.09232   0.11754   0.14963
   1 1   N  1S          0.10608   0.00000   0.01571   0.00000   0.04287
   2        2S         -0.18734   0.00000  -0.02329   0.00000  -0.06664
   3        2PX         0.00000   0.00000   0.00000  -0.28003   0.00000
   4        2PY         0.00000  -0.25279   0.00000   0.00000   0.00000
   5        2PZ         0.02535   0.00000  -0.24367   0.00000  -0.25504
   6        3S         -1.05363   0.00000  -0.18384   0.00000  -0.62168
   7        3PX         0.00000   0.00000   0.00000  -0.48414   0.00000
   8        3PY         0.00000  -0.27668   0.00000   0.00000   0.00000
   9        3PZ        -0.01697   0.00000  -0.36298   0.00000  -0.70822
  10        4S          1.32572   0.00000   0.11228   0.00000  -1.15201
  11        4PX         0.00000   0.00000   0.00000   1.18773   0.00000
  12        4PY         0.00000   1.31389   0.00000   0.00000   0.00000
  13        4PZ        -0.19365   0.00000   1.23683   0.00000  -0.49303
  14 2   H  1S          0.08222  -0.00572  -0.00132   0.00000   0.19095
  15        2S          0.16007  -0.24408  -0.01434   0.00000   1.40012
  16 3   H  1S          0.04805   0.00000   0.02279   0.00000  -0.10105
  17        2S         -0.05860   0.00000   0.19775   0.00000  -0.80740
  18 4   H  1S          0.08222   0.00572  -0.00132   0.00000   0.19095
  19        2S          0.16007   0.24408  -0.01434   0.00000   1.40012
                          11        12        13        14        15
                        (A1)--V   (B2)--V   (A1)--V   (B1)--V   (B2)--V
     Eigenvalues --     0.22088   0.24598   0.85695   0.88241   0.88301
   1 1   N  1S          0.07950   0.00000   0.00806   0.00000   0.00000
   2        2S         -0.10756   0.00000  -0.04025   0.00000   0.00000
   3        2PX         0.00000   0.00000   0.00000  -1.01759   0.00000
   4        2PY         0.00000  -0.33018   0.00000   0.00000  -1.04992
   5        2PZ         0.20120   0.00000  -0.99530   0.00000   0.00000
   6        3S         -1.40085   0.00000  -0.14804   0.00000   0.00000
   7        3PX         0.00000   0.00000   0.00000   1.43356   0.00000
   8        3PY         0.00000  -1.40516   0.00000   0.00000   2.24472
   9        3PZ         0.70113   0.00000   1.78321   0.00000   0.00000
  10        4S         -2.08868   0.00000  -0.29208   0.00000   0.00000
  11        4PX         0.00000   0.00000   0.00000  -0.66427   0.00000
  12        4PY         0.00000  -1.24159   0.00000   0.00000  -0.10083
  13        4PZ         0.59201   0.00000  -0.51872   0.00000   0.00000
  14 2   H  1S          0.08404   0.14843  -0.09932   0.00000  -0.07589
  15        2S          0.81061   2.26082  -0.00852   0.00000  -1.15282
  16 3   H  1S          0.21812   0.00000   0.18577   0.00000   0.00000
  17        2S          2.58471   0.00000   0.63641   0.00000   0.00000
  18 4   H  1S          0.08404  -0.14843  -0.09932   0.00000   0.07589
  19        2S          0.81061  -2.26082  -0.00852   0.00000   1.15282
                          16        17        18        19
                        (A1)--V   (A1)--V   (B2)--V   (A1)--V
     Eigenvalues --     0.94010   1.05891   1.13819   1.18374
   1 1   N  1S         -0.03479  -0.06170   0.00000   0.01999
   2        2S          0.14377   0.55213   0.00000  -1.80002
   3        2PX         0.00000   0.00000   0.00000   0.00000
   4        2PY         0.00000   0.00000   0.26862   0.00000
   5        2PZ         0.29044  -0.21455   0.00000   0.00458
   6        3S         -0.40061  -1.14896   0.00000   3.14631
   7        3PX         0.00000   0.00000   0.00000   0.00000
   8        3PY         0.00000   0.00000   0.38888   0.00000
   9        3PZ        -0.07541   0.01853   0.00000  -0.26267
  10        4S         -0.88445  -1.27804   0.00000  -0.50756
  11        4PX         0.00000   0.00000   0.00000   0.00000
  12        4PY         0.00000   0.00000  -0.90714   0.00000
  13        4PZ        -0.54819   0.53603   0.00000   0.01464
  14 2   H  1S         -0.90875  -0.36401  -1.09513  -0.23861
  15        2S          1.53465   0.74319   1.36588  -0.35640
  16 3   H  1S          0.52504  -1.30471   0.00000  -0.45095
  17        2S         -0.82408   2.21855   0.00000  -0.36185
  18 4   H  1S         -0.90875  -0.36401   1.09513  -0.23861
  19        2S          1.53465   0.74319  -1.36588  -0.35640
     Density Matrix:
                           1         2         3         4         5
   1 1   N  1S          2.06466
   2        2S         -0.11774   0.38115
   3        2PX         0.00000   0.00000   0.71540
   4        2PY        -0.00000   0.00000  -0.00000   0.45918
   5        2PZ        -0.00259   0.00703  -0.00000   0.00000   0.47307
   6        3S         -0.21440   0.38240  -0.00000   0.00000   0.01365
   7        3PX         0.00000   0.00000   0.54481  -0.00000   0.00000
   8        3PY         0.00000   0.00000  -0.00000   0.23953   0.00000
   9        3PZ         0.00192   0.00085  -0.00000   0.00000   0.24412
  10        4S         -0.00974   0.02165  -0.00000   0.00000   0.00249
  11        4PX         0.00000   0.00000   0.18999  -0.00000   0.00000
  12        4PY         0.00000  -0.00000  -0.00000   0.03441  -0.00000
  13        4PZ         0.00156  -0.00098  -0.00000  -0.00000   0.03343
  14 2   H  1S         -0.06285   0.13238  -0.00000   0.24302   0.12642
  15        2S          0.00072   0.01209  -0.00000   0.08970   0.07612
  16 3   H  1S         -0.05161   0.10593   0.00000  -0.00000  -0.29784
  17        2S          0.01407  -0.01353   0.00000  -0.00000  -0.16121
  18 4   H  1S         -0.06285   0.13238   0.00000  -0.24302   0.12642
  19        2S          0.00072   0.01209   0.00000  -0.08970   0.07612
                           6         7         8         9        10
   6        3S          0.38831
   7        3PX         0.00000   0.41490
   8        3PY         0.00000  -0.00000   0.12495
   9        3PZ         0.00415  -0.00000   0.00000   0.12599
  10        4S          0.02189  -0.00000   0.00000   0.00113   0.00124
  11        4PX         0.00000   0.14469  -0.00000   0.00000   0.00000
  12        4PY        -0.00000  -0.00000   0.01795  -0.00000   0.00000
  13        4PZ        -0.00058  -0.00000  -0.00000   0.01726   0.00009
  14 2   H  1S          0.13558  -0.00000   0.12677   0.06426   0.00810
  15        2S          0.01298  -0.00000   0.04679   0.03921   0.00102
  16 3   H  1S          0.10301   0.00000  -0.00000  -0.15452   0.00472
  17        2S         -0.01628   0.00000  -0.00000  -0.08309  -0.00150
  18 4   H  1S          0.13558   0.00000  -0.12677   0.06426   0.00810
  19        2S          0.01298   0.00000  -0.04679   0.03921   0.00102
                          11        12        13        14        15
  11        4PX         0.05046
  12        4PY        -0.00000   0.00258
  13        4PZ        -0.00000  -0.00000   0.00237
  14 2   H  1S         -0.00000   0.01821   0.00841   0.20733
  15        2S         -0.00000   0.00672   0.00534   0.07152   0.03010
  16 3   H  1S          0.00000  -0.00000  -0.02149  -0.04159  -0.04479
  17        2S          0.00000  -0.00000  -0.01134  -0.04700  -0.02624
  18 4   H  1S          0.00000  -0.01821   0.00841  -0.04991  -0.02343
  19        2S          0.00000  -0.00672   0.00534  -0.02343  -0.00495
                          16        17        18        19
  16 3   H  1S          0.21966
  17        2S          0.09818   0.05530
  18 4   H  1S         -0.04159  -0.04700   0.20733
  19        2S         -0.04479  -0.02624   0.07152   0.03010
    Full Mulliken population analysis:
                           1         2         3         4         5
   1 1   N  1S          2.06466
   2        2S         -0.02616   0.38115
   3        2PX         0.00000   0.00000   0.71540
   4        2PY         0.00000   0.00000   0.00000   0.45918
   5        2PZ         0.00000   0.00000   0.00000   0.00000   0.47307
   6        3S         -0.03685   0.29655   0.00000   0.00000   0.00000
   7        3PX         0.00000   0.00000   0.28292   0.00000   0.00000
   8        3PY         0.00000   0.00000   0.00000   0.12439   0.00000
   9        3PZ         0.00000   0.00000   0.00000   0.00000   0.12677
  10        4S         -0.00070   0.00887   0.00000   0.00000   0.00000
  11        4PX         0.00000   0.00000   0.03210   0.00000   0.00000
  12        4PY         0.00000   0.00000   0.00000   0.00581   0.00000
  13        4PZ         0.00000   0.00000   0.00000   0.00000   0.00565
  14 2   H  1S         -0.00203   0.03312   0.00000   0.07257   0.01335
  15        2S          0.00006   0.00505   0.00000   0.01648   0.00494
  16 3   H  1S         -0.00167   0.02650   0.00000   0.00000   0.09434
  17        2S          0.00110  -0.00565   0.00000   0.00000   0.03141
  18 4   H  1S         -0.00203   0.03312   0.00000   0.07257   0.01335
  19        2S          0.00006   0.00505   0.00000   0.01648   0.00494
                           6         7         8         9        10
   6        3S          0.38831
   7        3PX         0.00000   0.41490
   8        3PY         0.00000   0.00000   0.12495
   9        3PZ         0.00000   0.00000   0.00000   0.12599
  10        4S          0.01697   0.00000   0.00000   0.00000   0.00124
  11        4PX         0.00000   0.09460   0.00000   0.00000   0.00000
  12        4PY         0.00000   0.00000   0.01174   0.00000   0.00000
  13        4PZ         0.00000   0.00000   0.00000   0.01129   0.00000
  14 2   H  1S          0.05420   0.00000   0.06596   0.01182   0.00255
  15        2S          0.00904   0.00000   0.02381   0.00705   0.00073
  16 3   H  1S          0.04118   0.00000   0.00000   0.08528   0.00149
  17        2S         -0.01135   0.00000   0.00000   0.04485  -0.00108
  18 4   H  1S          0.05420   0.00000   0.06596   0.01182   0.00255
  19        2S          0.00904   0.00000   0.02381   0.00705   0.00073
                          11        12        13        14        15
  11        4PX         0.05046
  12        4PY         0.00000   0.00258
  13        4PZ         0.00000   0.00000   0.00237
  14 2   H  1S          0.00000   0.00487   0.00080   0.20733
  15        2S          0.00000   0.00322   0.00090   0.04708   0.03010
  16 3   H  1S          0.00000   0.00000   0.00610  -0.00114  -0.00783
  17        2S          0.00000   0.00000   0.00575  -0.00822  -0.01162
  18 4   H  1S          0.00000   0.00487   0.00080  -0.00046  -0.00264
  19        2S          0.00000   0.00322   0.00090  -0.00264  -0.00167
                          16        17        18        19
  16 3   H  1S          0.21966
  17        2S          0.06463   0.05530
  18 4   H  1S         -0.00114  -0.00822   0.20733
  19        2S         -0.00783  -0.01162   0.04708   0.03010
     Gross orbital populations:
                           1
   1 1   N  1S          1.99642
   2        2S          0.75759
   3        2PX         1.03042
   4        2PY         0.76748
   5        2PZ         0.76782
   6        3S          0.82129
   7        3PX         0.79242
   8        3PY         0.44063
   9        3PZ         0.43192
  10        4S          0.03335
  11        4PX         0.17716
  12        4PY         0.03631
  13        4PZ         0.03455
  14 2   H  1S          0.49917
  15        2S          0.12471
  16 3   H  1S          0.51957
  17        2S          0.14530
  18 4   H  1S          0.49917
  19        2S          0.12471
          Condensed to atoms (all electrons):
              1          2          3          4
     1  N    7.112114   0.328501   0.318249   0.328501
     2  H    0.328501   0.331587  -0.028806  -0.007396
     3  H    0.318249  -0.028806   0.404226  -0.028806
     4  H    0.328501  -0.007396  -0.028806   0.331587
 Mulliken atomic charges:
              1
     1  N   -1.087364
     2  H    0.376114
     3  H    0.335136
     4  H    0.376114
 Sum of Mulliken atomic charges =   0.00000
 Mulliken charges with hydrogens summed into heavy atoms:
              1
     1  N    0.000000
 Sum of Mulliken charges with hydrogens summed into heavy atoms =   0.00000
 Electronic spatial extent (au):  <R**2>=             27.8913
 Charge=              0.0000 electrons
 Dipole moment (field-independent basis, Debye):
    X=             -0.0000    Y=              0.0000    Z=             -0.3498  Tot=              0.3498
 Quadrupole moment (field-independent basis, Debye-Ang):
   XX=            -10.6775   YY=             -5.0064   ZZ=             -6.6003
   XY=              0.0000   XZ=             -0.0000   YZ=              0.0000
 Traceless Quadrupole moment (field-independent basis, Debye-Ang):
   XX=             -3.2495   YY=              2.4216   ZZ=              0.8278
   XY=              0.0000   XZ=             -0.0000   YZ=              0.0000
 Octapole moment (field-independent basis, Debye-Ang**2):
  XXX=              0.0000  YYY=             -0.0000  ZZZ=             -1.5304  XYY=             -0.0000
  XXY=              0.0000  XXZ=             -0.1681  XZZ=              0.0000  YZZ=             -0.0000
  YYZ=              1.1294  XYZ=              0.0000
 Hexadecapole moment (field-independent basis, Debye-Ang**3):
 XXXX=            -15.5105 YYYY=             -9.5507 ZZZZ=            -10.8575 XXXY=             -0.0000
 XXXZ=              0.0000 YYYX=              0.0000 YYYZ=             -0.0000 ZZZX=              0.0000
 ZZZY=             -0.0000 XXYY=             -4.8261 XXZZ=             -4.7037 YYZZ=             -3.8191
 XXYZ=              0.0000 YYXZ=             -0.0000 ZZXY=             -0.0000
 N-N= 1.169074470597D+01 E-N=-1.551336448327D+02  KE= 5.602504929455D+01
 Symmetry A1   KE= 5.041786992364D+01
 Symmetry A2   KE= 0.000000000000D+00
 Symmetry B1   KE= 3.015914552627D+00
 Symmetry B2   KE= 2.591264818279D+00
 Orbital energies and kinetic energies (alpha):
                                 1                 2
   1         (A1)--O         -14.312280         22.053745
   2         (A1)--O          -0.835665          1.838241
   3         (B2)--O          -0.509189          1.295632
   4         (A1)--O          -0.449555          1.316950
   5         (B1)--O          -0.238892          1.507957
   6         (A1)--V           0.023739          0.654684
   7         (B2)--V           0.077047          0.405058
   8         (A1)--V           0.092319          0.417102
   9         (B1)--V           0.117543          0.497098
  10         (A1)--V           0.149632          0.872664
  11         (A1)--V           0.220885          0.937439
  12         (B2)--V           0.245981          0.960359
  13         (A1)--V           0.856946          2.767776
  14         (B1)--V           0.882415          2.876019
  15         (B2)--V           0.883013          2.971204
  16         (A1)--V           0.940095          2.337339
  17         (A1)--V           1.058906          2.733896
  18         (B2)--V           1.138190          2.561927
  19         (A1)--V           1.183744          2.755850
 Total kinetic energy from orbitals= 5.602504929455D+01
 No NMR shielding tensors so no spin-rotation constants.
 Leave Link  601 at Sun Sep 15 16:41:04 2024, MaxMem=   13107200 cpu:       0.1
 (Enter /programs/64bit/g09/g09-gfortran/bin/l701.exe)
 Compute integral first derivatives.
 ... and contract with generalized density number  0.
 Leave Link  701 at Sun Sep 15 16:41:04 2024, MaxMem=   13107200 cpu:       0.1
 (Enter /programs/64bit/g09/g09-gfortran/bin/l702.exe)
 L702 exits ... SP integral derivatives will be done elsewhere.
 Leave Link  702 at Sun Sep 15 16:41:04 2024, MaxMem=   13107200 cpu:       0.1
 (Enter /programs/64bit/g09/g09-gfortran/bin/l703.exe)
 Compute integral first derivatives, UseDBF=F ICtDFT=           0.
 Integral derivatives from FoFDir, PRISM(SPDF).
 Calling FoFJK, ICntrl=      2127 FMM=F ISym2X=1 I1Cent= 0 IOpClX= 0 NMat=1 NMatS=1 NMatT=0.
 FoFCou: FMM=F IPFlag=           0 FMFlag=      100000 FMFlg1=         800
         NFxFlg=           0 DoJE=F BraDBF=F KetDBF=F FulRan=T
         Omega=  0.000000  0.000000  1.000000  0.000000  0.000000 ICntrl=    2127 IOpCl=  0
         NMat0=    1 NMatS0=    1 NMatT0=    0 NMatD0=    1 NMtDS0=    0 NMtDT0=    0
         I1Cent=           0 NGrid=           0.
 Petite list used in FoFCou.
 Leave Link  703 at Sun Sep 15 16:41:05 2024, MaxMem=   13107200 cpu:       0.4
 (Enter /programs/64bit/g09/g09-gfortran/bin/l716.exe)
 Dipole        =-7.26358220D-17 0.00000000D+00-1.37614428D-01
 ***** Axes restored to original set *****
 -------------------------------------------------------------------
 Center     Atomic                   Forces (Hartrees/Bohr)
 Number     Number              X              Y              Z
 -------------------------------------------------------------------
      1        7           0.045787794    0.000000000   -0.016188430
      2        1          -0.027032133   -0.000000000   -0.025448521
      3        1          -0.013726065    0.000000000    0.004852897
      4        1          -0.005029595   -0.000000000    0.036784054
 -------------------------------------------------------------------
 Cartesian Forces:  Max     0.045787794 RMS     0.021069863
 Leave Link  716 at Sun Sep 15 16:41:05 2024, MaxMem=   13107200 cpu:       0.1
 (Enter /programs/64bit/g09/g09-gfortran/bin/l103.exe)

 GradGradGradGradGradGradGradGradGradGradGradGradGradGradGradGradGradGrad
 Berny optimization.
 Internal  Forces:  Max     0.035077219 RMS     0.021885504
 Search for a local minimum.
 Step number   1 out of a maximum of   20
 All quantities printed in internal units (Hartrees-Bohrs-Radians)
 RMS Force = .21886D-01 SwitMx=.10000D-02 MixMth= 1
 Mixed Optimization -- RFO/linear search
 Second derivative matrix not updated -- first step.
 The second derivative matrix:
                          R1        R2        R3        A1        A2
           R1           0.42780
           R2           0.00000   0.42780
           R3           0.00000   0.00000   0.42780
           A1           0.00000   0.00000   0.00000   0.16000
           A2           0.00000   0.00000   0.00000   0.00000   0.16000
           A3           0.00000   0.00000   0.00000   0.00000   0.00000
           D1           0.00000   0.00000   0.00000   0.00000   0.00000
                          A3        D1
           A3           0.16000
           D1           0.00000   0.00632
     Eigenvalues ---    0.00632   0.16000   0.16000   0.42780   0.42780
     Eigenvalues ---    0.427801000.00000
 RFO step:  Lambda=-1.40173106D-02 EMin= 6.31539610D-03
 Linear search not attempted -- first point.
 Iteration  1 RMS(Cart)=  0.08451105 RMS(Int)=  0.00567070
 Iteration  2 RMS(Cart)=  0.00518895 RMS(Int)=  0.00000560
 Iteration  3 RMS(Cart)=  0.00000496 RMS(Int)=  0.00000000
 Iteration  4 RMS(Cart)=  0.00000000 RMS(Int)=  0.00000000
 ClnCor:  largest displacement from symmetrization is 2.76D-09 for atom     1.
 Variable       Old X    -DE/DX   Delta X   Delta X   Delta X     New X
                                 (Linear)    (Quad)   (Total)
    R1        1.94642  -0.02545   0.00000  -0.05760  -0.05760   1.88882
    R2        1.94642  -0.01456   0.00000  -0.03295  -0.03295   1.91347
    R3        1.94642  -0.02545   0.00000  -0.05760  -0.05760   1.88882
    A1        1.91063   0.01754   0.00000   0.10079   0.10079   2.01142
    A2        2.46192  -0.03508   0.00000  -0.20157  -0.20157   2.26035
    A3        1.91063   0.01754   0.00000   0.10079   0.10079   2.01142
    D1        3.14159   0.00000   0.00000   0.00000   0.00000   3.14159
         Item               Value     Threshold  Converged?
 Maximum Force            0.035077     0.000450     NO 
 RMS     Force            0.021886     0.000300     NO 
 Maximum Displacement     0.142829     0.001800     NO 
 RMS     Displacement     0.086462     0.001200     NO 
 Predicted change in Energy=-7.489932D-03
 GradGradGradGradGradGradGradGradGradGradGradGradGradGradGradGradGradGrad

 Leave Link  103 at Sun Sep 15 16:41:05 2024, MaxMem=   13107200 cpu:       0.0
 (Enter /programs/64bit/g09/g09-gfortran/bin/l202.exe)
                          Input orientation:                          
 ---------------------------------------------------------------------
 Center     Atomic      Atomic             Coordinates (Angstroms)
 Number     Number       Type             X           Y           Z
 ---------------------------------------------------------------------
      1          7           0        0.043220    0.000000   -0.015281
      2          1           0       -0.057347   -0.000000    0.979167
      3          1           0        0.997874    0.000000   -0.352802
      4          1           0       -0.660048    0.000000   -0.725529
 ---------------------------------------------------------------------
                    Distance matrix (angstroms):
                    1          2          3          4
     1  N    0.000000
     2  H    0.999520   0.000000
     3  H    1.012563   1.699303   0.000000
     4  H    0.999520   1.808103   1.699303   0.000000
 Stoichiometry    H3N
 Framework group  C2V[C2(HN),SGV(H2)]
 Deg. of freedom     3
 Full point group                 C2V     NOp   4
 Largest Abelian subgroup         C2V     NOp   4
 Largest concise Abelian subgroup C2      NOp   2
                         Standard orientation:                         
 ---------------------------------------------------------------------
 Center     Atomic      Atomic             Coordinates (Angstroms)
 Number     Number       Type             X           Y           Z
 ---------------------------------------------------------------------
      1          7           0        0.000000    0.000000    0.015997
      2          1           0        0.000000    0.904051    0.442295
      3          1           0       -0.000000   -0.000000   -0.996566
      4          1           0       -0.000000   -0.904051    0.442295
 ---------------------------------------------------------------------
 Rotational constants (GHZ):    361.4795130    306.7720005    165.9431982
 Leave Link  202 at Sun Sep 15 16:41:05 2024, MaxMem=   13107200 cpu:       0.0
 (Enter /programs/64bit/g09/g09-gfortran/bin/l301.exe)
 Standard basis: 6-31+G (6D, 7F)
 Ernie: Thresh=  0.10000D-02 Tol=  0.10000D-05 Strict=F.
 There are    11 symmetry adapted basis functions of A1  symmetry.
 There are     0 symmetry adapted basis functions of A2  symmetry.
 There are     3 symmetry adapted basis functions of B1  symmetry.
 There are     5 symmetry adapted basis functions of B2  symmetry.
 Integral buffers will be    131072 words long.
 Raffenetti 2 integral format.
 Two-electron integral symmetry is turned on.
    19 basis functions,    38 primitive gaussians,    19 cartesian basis functions
     5 alpha electrons        5 beta electrons
       nuclear repulsion energy        11.9858099861 Hartrees.
 IExCor=  402 DFT=T Ex+Corr=B3LYP ExCW=0 ScaHFX=  0.200000
 ScaDFX=  0.800000  0.720000  1.000000  0.810000 ScalE2=  1.000000  1.000000
 IRadAn=      0 IRanWt=     -1 IRanGd=            0 ICorTp=0
 NAtoms=    4 NActive=    4 NUniq=    3 SFac= 1.33D+00 NAtFMM=   80 NAOKFM=F Big=F
 Leave Link  301 at Sun Sep 15 16:41:05 2024, MaxMem=   13107200 cpu:       0.1
 (Enter /programs/64bit/g09/g09-gfortran/bin/l302.exe)
 NPDir=0 NMtPBC=     1 NCelOv=     1 NCel=       1 NClECP=     1 NCelD=      1
         NCelK=      1 NCelE2=     1 NClLst=     1 CellRange=     0.0.
 One-electron integrals computed using PRISM.
 One-electron integral symmetry used in STVInt
 NBasis=    19 RedAO= T  NBF=    11     0     3     5
 NBsUse=    19 1.00D-06 NBFU=    11     0     3     5
 Precomputing XC quadrature grid using
 IXCGrd= 2 IRadAn=           0 IRanWt=          -1 IRanGd=           0 AccXCQ= 1.00D-10.
 NRdTot=     252 NPtTot=       31966 NUsed=       33795 NTot=       33827
 NSgBfM=    19    19    19    19    19 NAtAll=     4     4.
 Leave Link  302 at Sun Sep 15 16:41:05 2024, MaxMem=   13107200 cpu:       0.2
 (Enter /programs/64bit/g09/g09-gfortran/bin/l303.exe)
 DipDrv:  MaxL=1.
 Leave Link  303 at Sun Sep 15 16:41:05 2024, MaxMem=   13107200 cpu:       0.0
 (Enter /programs/64bit/g09/g09-gfortran/bin/l401.exe)
 Initial guess read from the read-write file.
 B after Tr=     0.000000    0.000000    0.000000
         Rot=    1.000000    0.000000    0.000000    0.000000 Ang=   0.00 deg.
 Guess basis will be translated and rotated to current coordinates.
 Initial guess orbital symmetries:
       Occupied  (A1) (A1) (B2) (A1) (B1)
       Virtual   (A1) (B2) (A1) (B1) (A1) (A1) (B2) (A1) (B1) (B2)
                 (A1) (A1) (B2) (A1)
 The electronic state of the initial guess is 1-A1.
 Generating alternative initial guess.
 Harris functional with IExCor=  402 diagonalized for initial guess.
 ExpMin= 6.39D-02 ExpMax= 4.17D+03 ExpMxC= 6.27D+02 IAcc=2 IRadAn=         0 AccDes= 0.00D+00
 HarFok:  IExCor=  402 AccDes= 0.00D+00 IRadAn=         0 IDoV= 1
 ScaDFX=  1.000000  1.000000  1.000000  1.000000
 FoFCou: FMM=F IPFlag=           0 FMFlag=      100000 FMFlg1=           0
         NFxFlg=           0 DoJE=T BraDBF=F KetDBF=T FulRan=T
         Omega=  0.000000  0.000000  1.000000  0.000000  0.000000 ICntrl=     500 IOpCl=  0
         NMat0=    1 NMatS0=    1 NMatT0=    0 NMatD0=    1 NMtDS0=    0 NMtDT0=    0
         I1Cent=           4 NGrid=           0.
 Petite list used in FoFCou.
 Harris En= -56.5840223396319    
 Leave Link  401 at Sun Sep 15 16:41:06 2024, MaxMem=   13107200 cpu:       0.5
 (Enter /programs/64bit/g09/g09-gfortran/bin/l502.exe)
 Closed shell SCF:
 Requested convergence on RMS density matrix=1.00D-08 within 128 cycles.
 Requested convergence on MAX density matrix=1.00D-06.
 Requested convergence on             energy=1.00D-06.
 No special actions if energy rises.
 Using DIIS extrapolation, IDIIS=  1040.
 Integral symmetry usage will be decided dynamically.
        33746 words used for storage of precomputed grid.
 Keep R1 ints in memory in canonical form, NReq=929680.
 IEnd=       53553 IEndB=       53553 NGot=    13107200 MDV=    13052577
 LenX=    13052577 LenY=    13051695
 Symmetry not used in FoFDir.
 MinBra= 0 MaxBra= 1 Meth= 1.
 IRaf=       0 NMat=   1 IRICut=       1 DoRegI=T DoRafI=F ISym2E= 0 JSym2E=0.
 Integral accuracy reduced to 1.0D-05 until final iterations.

 Cycle   1  Pass 0  IDiag  1:
 E= -56.5396741928658    
 DIIS: error= 7.21D-03 at cycle   1 NSaved=   1.
 NSaved= 1 IEnMin= 1 EnMin= -56.5396741928658     IErMin= 1 ErrMin= 7.21D-03
 ErrMax= 7.21D-03 EMaxC= 1.00D-01 BMatC= 9.15D-04 BMatP= 9.15D-04
 IDIUse=3 WtCom= 9.28D-01 WtEn= 7.21D-02
 Coeff-Com:  0.100D+01
 Coeff-En:   0.100D+01
 Coeff:      0.100D+01
 Gap=     0.278 Goal=   None    Shift=    0.000
 GapD=    0.278 DampG=1.000 DampE=1.000 DampFc=1.0000 IDamp=-1.
 RMSDP=2.44D-03 MaxDP=1.35D-02              OVMax= 2.13D-02

 Cycle   2  Pass 0  IDiag  1:
 E= -56.5402897752699     Delta-E=       -0.000615582404 Rises=F Damp=F
 DIIS: error= 6.06D-03 at cycle   2 NSaved=   2.
 NSaved= 2 IEnMin= 2 EnMin= -56.5402897752699     IErMin= 2 ErrMin= 6.06D-03
 ErrMax= 6.06D-03 EMaxC= 1.00D-01 BMatC= 6.82D-04 BMatP= 9.15D-04
 IDIUse=3 WtCom= 9.39D-01 WtEn= 6.06D-02
 Coeff-Com:  0.453D+00 0.547D+00
 Coeff-En:   0.193D+00 0.807D+00
 Coeff:      0.437D+00 0.563D+00
 Gap=     0.266 Goal=   None    Shift=    0.000
 RMSDP=1.20D-03 MaxDP=1.12D-02 DE=-6.16D-04 OVMax= 1.22D-02

 Cycle   3  Pass 0  IDiag  1:
 E= -56.5408000345438     Delta-E=       -0.000510259274 Rises=F Damp=F
 DIIS: error= 2.28D-03 at cycle   3 NSaved=   3.
 NSaved= 3 IEnMin= 3 EnMin= -56.5408000345438     IErMin= 3 ErrMin= 2.28D-03
 ErrMax= 2.28D-03 EMaxC= 1.00D-01 BMatC= 1.18D-04 BMatP= 6.82D-04
 IDIUse=3 WtCom= 9.77D-01 WtEn= 2.28D-02
 Coeff-Com: -0.388D-02 0.292D+00 0.712D+00
 Coeff-En:   0.000D+00 0.146D+00 0.854D+00
 Coeff:     -0.379D-02 0.289D+00 0.715D+00
 Gap=     0.269 Goal=   None    Shift=    0.000
 RMSDP=3.38D-04 MaxDP=2.79D-03 DE=-5.10D-04 OVMax= 2.94D-03

 Cycle   4  Pass 0  IDiag  1:
 E= -56.5409022104773     Delta-E=       -0.000102175934 Rises=F Damp=F
 DIIS: error= 5.68D-05 at cycle   4 NSaved=   4.
 NSaved= 4 IEnMin= 4 EnMin= -56.5409022104773     IErMin= 4 ErrMin= 5.68D-05
 ErrMax= 5.68D-05 EMaxC= 1.00D-01 BMatC= 5.53D-08 BMatP= 1.18D-04
 IDIUse=1 WtCom= 1.00D+00 WtEn= 0.00D+00
 Coeff-Com: -0.418D-02 0.293D-01 0.795D-01 0.895D+00
 Coeff:     -0.418D-02 0.293D-01 0.795D-01 0.895D+00
 Gap=     0.269 Goal=   None    Shift=    0.000
 RMSDP=2.32D-05 MaxDP=1.02D-04 DE=-1.02D-04 OVMax= 1.60D-04

 Cycle   5  Pass 0  IDiag  1:
 E= -56.5409022990956     Delta-E=       -0.000000088618 Rises=F Damp=F
 DIIS: error= 9.36D-06 at cycle   5 NSaved=   5.
 NSaved= 5 IEnMin= 5 EnMin= -56.5409022990956     IErMin= 5 ErrMin= 9.36D-06
 ErrMax= 9.36D-06 EMaxC= 1.00D-01 BMatC= 1.75D-09 BMatP= 5.53D-08
 IDIUse=1 WtCom= 1.00D+00 WtEn= 0.00D+00
 Coeff-Com: -0.330D-03-0.121D-02-0.512D-02 0.665D-01 0.940D+00
 Coeff:     -0.330D-03-0.121D-02-0.512D-02 0.665D-01 0.940D+00
 Gap=     0.269 Goal=   None    Shift=    0.000
 RMSDP=2.38D-06 MaxDP=1.14D-05 DE=-8.86D-08 OVMax= 1.94D-05

 Initial convergence to 1.0D-05 achieved.  Increase integral accuracy.
 Cycle   6  Pass 1  IDiag  1:
 E= -56.5409077922715     Delta-E=       -0.000005493176 Rises=F Damp=F
 DIIS: error= 1.04D-05 at cycle   1 NSaved=   1.
 NSaved= 1 IEnMin= 1 EnMin= -56.5409077922715     IErMin= 1 ErrMin= 1.04D-05
 ErrMax= 1.04D-05 EMaxC= 1.00D-01 BMatC= 7.59D-10 BMatP= 7.59D-10
 IDIUse=1 WtCom= 1.00D+00 WtEn= 0.00D+00
 Coeff-Com:  0.100D+01
 Coeff:      0.100D+01
 Gap=     0.269 Goal=   None    Shift=    0.000
 RMSDP=2.38D-06 MaxDP=1.14D-05 DE=-5.49D-06 OVMax= 7.02D-05

 Cycle   7  Pass 1  IDiag  1:
 E= -56.5409077957004     Delta-E=       -0.000000003429 Rises=F Damp=F
 DIIS: error= 4.98D-06 at cycle   2 NSaved=   2.
 NSaved= 2 IEnMin= 2 EnMin= -56.5409077957004     IErMin= 2 ErrMin= 4.98D-06
 ErrMax= 4.98D-06 EMaxC= 1.00D-01 BMatC= 5.40D-10 BMatP= 7.59D-10
 IDIUse=1 WtCom= 1.00D+00 WtEn= 0.00D+00
 Coeff-Com:  0.419D+00 0.581D+00
 Coeff:      0.419D+00 0.581D+00
 Gap=     0.269 Goal=   None    Shift=    0.000
 RMSDP=1.07D-06 MaxDP=8.24D-06 DE=-3.43D-09 OVMax= 9.16D-06

 Cycle   8  Pass 1  IDiag  1:
 E= -56.5409077960937     Delta-E=       -0.000000000393 Rises=F Damp=F
 DIIS: error= 2.81D-06 at cycle   3 NSaved=   3.
 NSaved= 3 IEnMin= 3 EnMin= -56.5409077960937     IErMin= 3 ErrMin= 2.81D-06
 ErrMax= 2.81D-06 EMaxC= 1.00D-01 BMatC= 1.03D-10 BMatP= 5.40D-10
 IDIUse=1 WtCom= 1.00D+00 WtEn= 0.00D+00
 Coeff-Com: -0.585D-01 0.311D+00 0.747D+00
 Coeff:     -0.585D-01 0.311D+00 0.747D+00
 Gap=     0.269 Goal=   None    Shift=    0.000
 RMSDP=4.75D-07 MaxDP=4.16D-06 DE=-3.93D-10 OVMax= 6.39D-06

 Cycle   9  Pass 1  IDiag  1:
 E= -56.5409077961987     Delta-E=       -0.000000000105 Rises=F Damp=F
 DIIS: error= 1.28D-07 at cycle   4 NSaved=   4.
 NSaved= 4 IEnMin= 4 EnMin= -56.5409077961987     IErMin= 4 ErrMin= 1.28D-07
 ErrMax= 1.28D-07 EMaxC= 1.00D-01 BMatC= 1.41D-13 BMatP= 1.03D-10
 IDIUse=1 WtCom= 1.00D+00 WtEn= 0.00D+00
 Coeff-Com: -0.462D-02 0.131D-01 0.141D-02 0.990D+00
 Coeff:     -0.462D-02 0.131D-01 0.141D-02 0.990D+00
 Gap=     0.269 Goal=   None    Shift=    0.000
 RMSDP=2.93D-08 MaxDP=2.47D-07 DE=-1.05D-10 OVMax= 3.61D-07

 Cycle  10  Pass 1  IDiag  1:
 E= -56.5409077961990     Delta-E=       -0.000000000000 Rises=F Damp=F
 DIIS: error= 9.90D-09 at cycle   5 NSaved=   5.
 NSaved= 5 IEnMin= 5 EnMin= -56.5409077961990     IErMin= 5 ErrMin= 9.90D-09
 ErrMax= 9.90D-09 EMaxC= 1.00D-01 BMatC= 1.42D-15 BMatP= 1.41D-13
 IDIUse=1 WtCom= 1.00D+00 WtEn= 0.00D+00
 Coeff-Com:  0.234D-03-0.191D-02-0.863D-02 0.958D-01 0.914D+00
 Coeff:      0.234D-03-0.191D-02-0.863D-02 0.958D-01 0.914D+00
 Gap=     0.269 Goal=   None    Shift=    0.000
 RMSDP=3.75D-09 MaxDP=1.86D-08 DE=-2.42D-13 OVMax= 2.22D-08

 SCF Done:  E(RB3LYP) =  -56.5409077962     A.U. after   10 cycles
             Convg  =    0.3755D-08             -V/T =  2.0069
 KE= 5.615260738384D+01 PE=-1.558061303744D+02 EE= 3.112680520826D+01
 Leave Link  502 at Sun Sep 15 16:41:07 2024, MaxMem=   13107200 cpu:       1.0
 (Enter /programs/64bit/g09/g09-gfortran/bin/l701.exe)
 Compute integral first derivatives.
 ... and contract with generalized density number  0.
 Leave Link  701 at Sun Sep 15 16:41:08 2024, MaxMem=   13107200 cpu:       0.2
 (Enter /programs/64bit/g09/g09-gfortran/bin/l702.exe)
 L702 exits ... SP integral derivatives will be done elsewhere.
 Leave Link  702 at Sun Sep 15 16:41:08 2024, MaxMem=   13107200 cpu:       0.0
 (Enter /programs/64bit/g09/g09-gfortran/bin/l703.exe)
 Compute integral first derivatives, UseDBF=F ICtDFT=           0.
 Integral derivatives from FoFDir, PRISM(SPDF).
 Calling FoFJK, ICntrl=      2127 FMM=F ISym2X=1 I1Cent= 0 IOpClX= 0 NMat=1 NMatS=1 NMatT=0.
 FoFCou: FMM=F IPFlag=           0 FMFlag=      100000 FMFlg1=         800
         NFxFlg=           0 DoJE=F BraDBF=F KetDBF=F FulRan=T
         Omega=  0.000000  0.000000  1.000000  0.000000  0.000000 ICntrl=    2127 IOpCl=  0
         NMat0=    1 NMatS0=    1 NMatT0=    0 NMatD0=    1 NMtDS0=    0 NMtDT0=    0
         I1Cent=           0 NGrid=           0.
 Petite list used in FoFCou.
 Leave Link  703 at Sun Sep 15 16:41:08 2024, MaxMem=   13107200 cpu:       0.3
 (Enter /programs/64bit/g09/g09-gfortran/bin/l716.exe)
 Dipole        =-6.47254724D-17 0.00000000D+00-6.09311007D-02
 ***** Axes restored to original set *****
 -------------------------------------------------------------------
 Center     Atomic                   Forces (Hartrees/Bohr)
 Number     Number              X              Y              Z
 -------------------------------------------------------------------
      1        7           0.029597988    0.000000000   -0.010464469
      2        1          -0.013676356   -0.000000000    0.000143595
      3        1          -0.005194210    0.000000000    0.001836431
      4        1          -0.010727421   -0.000000000    0.008484443
 -------------------------------------------------------------------
 Cartesian Forces:  Max     0.029597988 RMS     0.010762686
 Leave Link  716 at Sun Sep 15 16:41:08 2024, MaxMem=   13107200 cpu:       0.0
 (Enter /programs/64bit/g09/g09-gfortran/bin/l103.exe)

 GradGradGradGradGradGradGradGradGradGradGradGradGradGradGradGradGradGrad
 Berny optimization.
 Using GEDIIS/GDIIS optimizer.
 Internal  Forces:  Max     0.017115850 RMS     0.008232298
 Search for a local minimum.
 Step number   2 out of a maximum of   20
 All quantities printed in internal units (Hartrees-Bohrs-Radians)
 RMS Force = .82323D-02 SwitMx=.10000D-02 MixMth= 1
 Mixed Optimization -- RFO/linear search
 Update second derivatives using D2CorX and points    1    2
 DE= -9.77D-03 DEPred=-7.49D-03 R= 1.30D+00
 SS=  1.41D+00  RLast= 2.62D-01 DXNew= 5.0454D-01 7.8614D-01
 Trust test= 1.30D+00 RLast= 2.62D-01 DXMaxT set to 5.05D-01
 The second derivative matrix:
                          R1        R2        R3        A1        A2
           R1           0.46360
           R2           0.00101   0.42185
           R3           0.03580   0.00101   0.46360
           A1           0.00303   0.00822   0.00303   0.14921
           A2          -0.00606  -0.01643  -0.00606   0.02158   0.11683
           A3           0.00303   0.00822   0.00303  -0.01079   0.02158
           D1           0.00000   0.00000   0.00000  -0.00000   0.00000
                          A3        D1
           A3           0.14921
           D1          -0.00000   0.00632
 Use linear search instead of GDIIS.
     Eigenvalues ---    0.00632   0.09375   0.16000   0.42303   0.42780
     Eigenvalues ---    0.499721000.00000
 RFO step:  Lambda=-1.45499330D-03 EMin= 6.31539610D-03
 Quartic linear search produced a step of  0.49855.
 Iteration  1 RMS(Cart)=  0.05820714 RMS(Int)=  0.00316528
 Iteration  2 RMS(Cart)=  0.00301454 RMS(Int)=  0.00000065
 Iteration  3 RMS(Cart)=  0.00000055 RMS(Int)=  0.00000000
 ClnCor:  largest displacement from symmetrization is 2.61D-09 for atom     1.
 Variable       Old X    -DE/DX   Delta X   Delta X   Delta X     New X
                                 (Linear)    (Quad)   (Total)
    R1        1.88882   0.00152  -0.02872   0.03014   0.00142   1.89024
    R2        1.91347  -0.00551  -0.01643  -0.00499  -0.02142   1.89205
    R3        1.88882   0.00152  -0.02872   0.03014   0.00142   1.89024
    A1        2.01142   0.00856   0.05025   0.02894   0.07919   2.09061
    A2        2.26035  -0.01712  -0.10049  -0.05789  -0.15838   2.10196
    A3        2.01142   0.00856   0.05025   0.02894   0.07919   2.09061
    D1        3.14159   0.00000   0.00000   0.00000   0.00000   3.14159
         Item               Value     Threshold  Converged?
 Maximum Force            0.017116     0.000450     NO 
 RMS     Force            0.008232     0.000300     NO 
 Maximum Displacement     0.084406     0.001800     NO 
 RMS     Displacement     0.059128     0.001200     NO 
 Predicted change in Energy=-2.378346D-03
 GradGradGradGradGradGradGradGradGradGradGradGradGradGradGradGradGradGrad

 Leave Link  103 at Sun Sep 15 16:41:08 2024, MaxMem=   13107200 cpu:       0.0
 (Enter /programs/64bit/g09/g09-gfortran/bin/l202.exe)
                          Input orientation:                          
 ---------------------------------------------------------------------
 Center     Atomic      Atomic             Coordinates (Angstroms)
 Number     Number       Type             X           Y           Z
 ---------------------------------------------------------------------
      1          7           0        0.079152    0.000000   -0.027984
      2          1           0       -0.099904   -0.000000    0.956130
      3          1           0        1.023119    0.000000   -0.361727
      4          1           0       -0.678669    0.000000   -0.680863
 ---------------------------------------------------------------------
                    Distance matrix (angstroms):
                    1          2          3          4
     1  N    0.000000
     2  H    1.000272   0.000000
     3  H    1.001228   1.731453   0.000000
     4  H    1.000272   1.736294   1.731453   0.000000
 Stoichiometry    H3N
 Framework group  C2V[C2(HN),SGV(H2)]
 Deg. of freedom     3
 Full point group                 C2V     NOp   4
 Largest Abelian subgroup         C2V     NOp   4
 Largest concise Abelian subgroup C2      NOp   2
                         Standard orientation:                         
 ---------------------------------------------------------------------
 Center     Atomic      Atomic             Coordinates (Angstroms)
 Number     Number       Type             X           Y           Z
 ---------------------------------------------------------------------
      1          7           0       -0.000000    0.000000    0.000752
      2          1           0        0.000000    0.868147    0.497606
      3          1           0        0.000000    0.000000   -1.000476
      4          1           0       -0.000000   -0.868147    0.497606
 ---------------------------------------------------------------------
 Rotational constants (GHZ):    335.1561616    332.6714859    166.9546008
 Leave Link  202 at Sun Sep 15 16:41:08 2024, MaxMem=   13107200 cpu:       0.0
 (Enter /programs/64bit/g09/g09-gfortran/bin/l301.exe)
 Standard basis: 6-31+G (6D, 7F)
 Ernie: Thresh=  0.10000D-02 Tol=  0.10000D-05 Strict=F.
 There are    11 symmetry adapted basis functions of A1  symmetry.
 There are     0 symmetry adapted basis functions of A2  symmetry.
 There are     3 symmetry adapted basis functions of B1  symmetry.
 There are     5 symmetry adapted basis functions of B2  symmetry.
 Integral buffers will be    131072 words long.
 Raffenetti 2 integral format.
 Two-electron integral symmetry is turned on.
    19 basis functions,    38 primitive gaussians,    19 cartesian basis functions
     5 alpha electrons        5 beta electrons
       nuclear repulsion energy        12.0221907888 Hartrees.
 IExCor=  402 DFT=T Ex+Corr=B3LYP ExCW=0 ScaHFX=  0.200000
 ScaDFX=  0.800000  0.720000  1.000000  0.810000 ScalE2=  1.000000  1.000000
 IRadAn=      0 IRanWt=     -1 IRanGd=            0 ICorTp=0
 NAtoms=    4 NActive=    4 NUniq=    3 SFac= 1.33D+00 NAtFMM=   80 NAOKFM=F Big=F
 Leave Link  301 at Sun Sep 15 16:41:08 2024, MaxMem=   13107200 cpu:       0.1
 (Enter /programs/64bit/g09/g09-gfortran/bin/l302.exe)
 NPDir=0 NMtPBC=     1 NCelOv=     1 NCel=       1 NClECP=     1 NCelD=      1
         NCelK=      1 NCelE2=     1 NClLst=     1 CellRange=     0.0.
 One-electron integrals computed using PRISM.
 One-electron integral symmetry used in STVInt
 NBasis=    19 RedAO= T  NBF=    11     0     3     5
 NBsUse=    19 1.00D-06 NBFU=    11     0     3     5
 Precomputing XC quadrature grid using
 IXCGrd= 2 IRadAn=           0 IRanWt=          -1 IRanGd=           0 AccXCQ= 1.00D-10.
 NRdTot=     252 NPtTot=       31966 NUsed=       33795 NTot=       33827
 NSgBfM=    19    19    19    19    19 NAtAll=     4     4.
 Leave Link  302 at Sun Sep 15 16:41:08 2024, MaxMem=   13107200 cpu:       0.2
 (Enter /programs/64bit/g09/g09-gfortran/bin/l303.exe)
 DipDrv:  MaxL=1.
 Leave Link  303 at Sun Sep 15 16:41:08 2024, MaxMem=   13107200 cpu:       0.1
 (Enter /programs/64bit/g09/g09-gfortran/bin/l401.exe)
 Initial guess read from the read-write file.
 B after Tr=     0.000000    0.000000    0.000000
         Rot=    1.000000    0.000000    0.000000    0.000000 Ang=   0.00 deg.
 Guess basis will be translated and rotated to current coordinates.
 Initial guess orbital symmetries:
       Occupied  (A1) (A1) (B2) (A1) (B1)
       Virtual   (A1) (B2) (A1) (B1) (A1) (A1) (B2) (A1) (B2) (B1)
                 (A1) (A1) (B2) (A1)
 The electronic state of the initial guess is 1-A1.
 Generating alternative initial guess.
 Harris functional with IExCor=  402 diagonalized for initial guess.
 ExpMin= 6.39D-02 ExpMax= 4.17D+03 ExpMxC= 6.27D+02 IAcc=2 IRadAn=         0 AccDes= 0.00D+00
 HarFok:  IExCor=  402 AccDes= 0.00D+00 IRadAn=         0 IDoV= 1
 ScaDFX=  1.000000  1.000000  1.000000  1.000000
 FoFCou: FMM=F IPFlag=           0 FMFlag=      100000 FMFlg1=           0
         NFxFlg=           0 DoJE=T BraDBF=F KetDBF=T FulRan=T
         Omega=  0.000000  0.000000  1.000000  0.000000  0.000000 ICntrl=     500 IOpCl=  0
         NMat0=    1 NMatS0=    1 NMatT0=    0 NMatD0=    1 NMtDS0=    0 NMtDT0=    0
         I1Cent=           4 NGrid=           0.
 Petite list used in FoFCou.
 Harris En= -56.5867777159680    
 Leave Link  401 at Sun Sep 15 16:41:09 2024, MaxMem=   13107200 cpu:       0.4
 (Enter /programs/64bit/g09/g09-gfortran/bin/l502.exe)
 Closed shell SCF:
 Requested convergence on RMS density matrix=1.00D-08 within 128 cycles.
 Requested convergence on MAX density matrix=1.00D-06.
 Requested convergence on             energy=1.00D-06.
 No special actions if energy rises.
 Using DIIS extrapolation, IDIIS=  1040.
 Integral symmetry usage will be decided dynamically.
        33746 words used for storage of precomputed grid.
 Keep R1 ints in memory in canonical form, NReq=929680.
 IEnd=       53553 IEndB=       53553 NGot=    13107200 MDV=    13052577
 LenX=    13052577 LenY=    13051695
 Symmetry not used in FoFDir.
 MinBra= 0 MaxBra= 1 Meth= 1.
 IRaf=       0 NMat=   1 IRICut=       1 DoRegI=T DoRafI=F ISym2E= 0 JSym2E=0.
 Integral accuracy reduced to 1.0D-05 until final iterations.

 Cycle   1  Pass 0  IDiag  1:
 E= -56.5426433386103    
 DIIS: error= 3.37D-03 at cycle   1 NSaved=   1.
 NSaved= 1 IEnMin= 1 EnMin= -56.5426433386103     IErMin= 1 ErrMin= 3.37D-03
 ErrMax= 3.37D-03 EMaxC= 1.00D-01 BMatC= 2.81D-04 BMatP= 2.81D-04
 IDIUse=3 WtCom= 9.66D-01 WtEn= 3.37D-02
 Coeff-Com:  0.100D+01
 Coeff-En:   0.100D+01
 Coeff:      0.100D+01
 Gap=     0.271 Goal=   None    Shift=    0.000
 GapD=    0.271 DampG=1.000 DampE=1.000 DampFc=1.0000 IDamp=-1.
 RMSDP=1.40D-03 MaxDP=6.37D-03              OVMax= 1.14D-02

 Cycle   2  Pass 0  IDiag  1:
 E= -56.5431062102982     Delta-E=       -0.000462871688 Rises=F Damp=F
 DIIS: error= 8.88D-04 at cycle   2 NSaved=   2.
 NSaved= 2 IEnMin= 2 EnMin= -56.5431062102982     IErMin= 2 ErrMin= 8.88D-04
 ErrMax= 8.88D-04 EMaxC= 1.00D-01 BMatC= 1.60D-05 BMatP= 2.81D-04
 IDIUse=3 WtCom= 9.91D-01 WtEn= 8.88D-03
 Coeff-Com:  0.411D-01 0.959D+00
 Coeff-En:   0.000D+00 0.100D+01
 Coeff:      0.407D-01 0.959D+00
 Gap=     0.269 Goal=   None    Shift=    0.000
 RMSDP=3.17D-04 MaxDP=2.72D-03 DE=-4.63D-04 OVMax= 2.99D-03

 Cycle   3  Pass 0  IDiag  1:
 E= -56.5430983647979     Delta-E=        0.000007845500 Rises=F Damp=F
 DIIS: error= 1.16D-03 at cycle   3 NSaved=   3.
 NSaved= 3 IEnMin= 2 EnMin= -56.5431062102982     IErMin= 2 ErrMin= 8.88D-04
 ErrMax= 1.16D-03 EMaxC= 1.00D-01 BMatC= 2.71D-05 BMatP= 1.60D-05
 IDIUse=3 WtCom= 2.27D-01 WtEn= 7.73D-01
 Coeff-Com: -0.290D-01 0.581D+00 0.448D+00
 Coeff-En:   0.000D+00 0.593D+00 0.407D+00
 Coeff:     -0.658D-02 0.590D+00 0.416D+00
 Gap=     0.270 Goal=   None    Shift=    0.000
 RMSDP=1.64D-04 MaxDP=1.49D-03 DE= 7.85D-06 OVMax= 1.62D-03

 Cycle   4  Pass 0  IDiag  1:
 E= -56.5431221039217     Delta-E=       -0.000023739124 Rises=F Damp=F
 DIIS: error= 5.06D-05 at cycle   4 NSaved=   4.
 NSaved= 4 IEnMin= 4 EnMin= -56.5431221039217     IErMin= 4 ErrMin= 5.06D-05
 ErrMax= 5.06D-05 EMaxC= 1.00D-01 BMatC= 2.81D-08 BMatP= 1.60D-05
 IDIUse=1 WtCom= 1.00D+00 WtEn= 0.00D+00
 Coeff-Com: -0.673D-02 0.851D-01 0.509D-01 0.871D+00
 Coeff:     -0.673D-02 0.851D-01 0.509D-01 0.871D+00
 Gap=     0.270 Goal=   None    Shift=    0.000
 RMSDP=1.35D-05 MaxDP=6.23D-05 DE=-2.37D-05 OVMax= 1.12D-04

 Cycle   5  Pass 0  IDiag  1:
 E= -56.5431221453665     Delta-E=       -0.000000041445 Rises=F Damp=F
 DIIS: error= 3.48D-06 at cycle   5 NSaved=   5.
 NSaved= 5 IEnMin= 5 EnMin= -56.5431221453665     IErMin= 5 ErrMin= 3.48D-06
 ErrMax= 3.48D-06 EMaxC= 1.00D-01 BMatC= 1.36D-10 BMatP= 2.81D-08
 IDIUse=1 WtCom= 1.00D+00 WtEn= 0.00D+00
 Coeff-Com:  0.288D-03-0.650D-02-0.629D-02-0.900D-02 0.102D+01
 Coeff:      0.288D-03-0.650D-02-0.629D-02-0.900D-02 0.102D+01
 Gap=     0.270 Goal=   None    Shift=    0.000
 RMSDP=8.41D-07 MaxDP=4.50D-06 DE=-4.14D-08 OVMax= 8.31D-06

 Initial convergence to 1.0D-05 achieved.  Increase integral accuracy.
 Cycle   6  Pass 1  IDiag  1:
 E= -56.5431266923947     Delta-E=       -0.000004547028 Rises=F Damp=F
 DIIS: error= 9.41D-06 at cycle   1 NSaved=   1.
 NSaved= 1 IEnMin= 1 EnMin= -56.5431266923947     IErMin= 1 ErrMin= 9.41D-06
 ErrMax= 9.41D-06 EMaxC= 1.00D-01 BMatC= 7.79D-10 BMatP= 7.79D-10
 IDIUse=1 WtCom= 1.00D+00 WtEn= 0.00D+00
 Coeff-Com:  0.100D+01
 Coeff:      0.100D+01
 Gap=     0.270 Goal=   None    Shift=    0.000
 RMSDP=8.41D-07 MaxDP=4.50D-06 DE=-4.55D-06 OVMax= 6.86D-05

 Cycle   7  Pass 1  IDiag  1:
 E= -56.5431266957612     Delta-E=       -0.000000003366 Rises=F Damp=F
 DIIS: error= 4.82D-06 at cycle   2 NSaved=   2.
 NSaved= 2 IEnMin= 2 EnMin= -56.5431266957612     IErMin= 2 ErrMin= 4.82D-06
 ErrMax= 4.82D-06 EMaxC= 1.00D-01 BMatC= 5.08D-10 BMatP= 7.79D-10
 IDIUse=1 WtCom= 1.00D+00 WtEn= 0.00D+00
 Coeff-Com:  0.395D+00 0.605D+00
 Coeff:      0.395D+00 0.605D+00
 Gap=     0.270 Goal=   None    Shift=    0.000
 RMSDP=1.08D-06 MaxDP=8.51D-06 DE=-3.37D-09 OVMax= 8.77D-06

 Cycle   8  Pass 1  IDiag  1:
 E= -56.5431266961062     Delta-E=       -0.000000000345 Rises=F Damp=F
 DIIS: error= 2.95D-06 at cycle   3 NSaved=   3.
 NSaved= 3 IEnMin= 3 EnMin= -56.5431266961062     IErMin= 3 ErrMin= 2.95D-06
 ErrMax= 2.95D-06 EMaxC= 1.00D-01 BMatC= 1.23D-10 BMatP= 5.08D-10
 IDIUse=1 WtCom= 1.00D+00 WtEn= 0.00D+00
 Coeff-Com: -0.490D-01 0.340D+00 0.709D+00
 Coeff:     -0.490D-01 0.340D+00 0.709D+00
 Gap=     0.270 Goal=   None    Shift=    0.000
 RMSDP=4.72D-07 MaxDP=4.21D-06 DE=-3.45D-10 OVMax= 6.28D-06

 Cycle   9  Pass 1  IDiag  1:
 E= -56.5431266962260     Delta-E=       -0.000000000120 Rises=F Damp=F
 DIIS: error= 1.24D-07 at cycle   4 NSaved=   4.
 NSaved= 4 IEnMin= 4 EnMin= -56.5431266962260     IErMin= 4 ErrMin= 1.24D-07
 ErrMax= 1.24D-07 EMaxC= 1.00D-01 BMatC= 1.14D-13 BMatP= 1.23D-10
 IDIUse=1 WtCom= 1.00D+00 WtEn= 0.00D+00
 Coeff-Com: -0.234D-02 0.274D-02-0.198D-01 0.102D+01
 Coeff:     -0.234D-02 0.274D-02-0.198D-01 0.102D+01
 Gap=     0.270 Goal=   None    Shift=    0.000
 RMSDP=2.95D-08 MaxDP=2.48D-07 DE=-1.20D-10 OVMax= 3.81D-07

 Cycle  10  Pass 1  IDiag  1:
 E= -56.5431266962261     Delta-E=       -0.000000000000 Rises=F Damp=F
 DIIS: error= 6.22D-09 at cycle   5 NSaved=   5.
 NSaved= 5 IEnMin= 5 EnMin= -56.5431266962261     IErMin= 5 ErrMin= 6.22D-09
 ErrMax= 6.22D-09 EMaxC= 1.00D-01 BMatC= 1.04D-15 BMatP= 1.14D-13
 IDIUse=1 WtCom= 1.00D+00 WtEn= 0.00D+00
 Coeff-Com:  0.216D-03-0.306D-02-0.745D-02 0.834D-01 0.927D+00
 Coeff:      0.216D-03-0.306D-02-0.745D-02 0.834D-01 0.927D+00
 Gap=     0.270 Goal=   None    Shift=    0.000
 RMSDP=3.15D-09 MaxDP=1.24D-08 DE=-1.14D-13 OVMax= 1.87D-08

 SCF Done:  E(RB3LYP) =  -56.5431266962     A.U. after   10 cycles
             Convg  =    0.3151D-08             -V/T =  2.0067
 KE= 5.616890989026D+01 PE=-1.558917460740D+02 EE= 3.115751869869D+01
 Leave Link  502 at Sun Sep 15 16:41:10 2024, MaxMem=   13107200 cpu:       0.9
 (Enter /programs/64bit/g09/g09-gfortran/bin/l701.exe)
 Compute integral first derivatives.
 ... and contract with generalized density number  0.
 Leave Link  701 at Sun Sep 15 16:41:10 2024, MaxMem=   13107200 cpu:       0.1
 (Enter /programs/64bit/g09/g09-gfortran/bin/l702.exe)
 L702 exits ... SP integral derivatives will be done elsewhere.
 Leave Link  702 at Sun Sep 15 16:41:10 2024, MaxMem=   13107200 cpu:       0.0
 (Enter /programs/64bit/g09/g09-gfortran/bin/l703.exe)
 Compute integral first derivatives, UseDBF=F ICtDFT=           0.
 Integral derivatives from FoFDir, PRISM(SPDF).
 Calling FoFJK, ICntrl=      2127 FMM=F ISym2X=1 I1Cent= 0 IOpClX= 0 NMat=1 NMatS=1 NMatT=0.
 FoFCou: FMM=F IPFlag=           0 FMFlag=      100000 FMFlg1=         800
         NFxFlg=           0 DoJE=F BraDBF=F KetDBF=F FulRan=T
         Omega=  0.000000  0.000000  1.000000  0.000000  0.000000 ICntrl=    2127 IOpCl=  0
         NMat0=    1 NMatS0=    1 NMatT0=    0 NMatD0=    1 NMtDS0=    0 NMtDT0=    0
         I1Cent=           0 NGrid=           0.
 Petite list used in FoFCou.
 Leave Link  703 at Sun Sep 15 16:41:11 2024, MaxMem=   13107200 cpu:       0.4
 (Enter /programs/64bit/g09/g09-gfortran/bin/l716.exe)
 Dipole        =-6.10718958D-17 2.22044605D-16-2.79444054D-03
 ***** Axes restored to original set *****
 -------------------------------------------------------------------
 Center     Atomic                   Forces (Hartrees/Bohr)
 Number     Number              X              Y              Z
 -------------------------------------------------------------------
      1        7           0.001692813    0.000000000   -0.000598500
      2        1          -0.000992214   -0.000000000    0.001845889
      3        1           0.001231336    0.000000000   -0.000435343
      4        1          -0.001931936   -0.000000000   -0.000812046
 -------------------------------------------------------------------
 Cartesian Forces:  Max     0.001931936 RMS     0.001069000
 Leave Link  716 at Sun Sep 15 16:41:11 2024, MaxMem=   13107200 cpu:       0.0
 (Enter /programs/64bit/g09/g09-gfortran/bin/l103.exe)

 GradGradGradGradGradGradGradGradGradGradGradGradGradGradGradGradGradGrad
 Berny optimization.
 Using GEDIIS/GDIIS optimizer.
 Internal  Forces:  Max     0.001993688 RMS     0.001233381
 Search for a local minimum.
 Step number   3 out of a maximum of   20
 All quantities printed in internal units (Hartrees-Bohrs-Radians)
 RMS Force = .12334D-02 SwitMx=.10000D-02 MixMth= 1
 Mixed Optimization -- RFO/linear search
 Update second derivatives using D2CorX and points    1    2    3
 DE= -2.22D-03 DEPred=-2.38D-03 R= 9.33D-01
 SS=  1.41D+00  RLast= 1.95D-01 DXNew= 8.4853D-01 5.8550D-01
 Trust test= 9.33D-01 RLast= 1.95D-01 DXMaxT set to 5.86D-01
 The second derivative matrix:
                          R1        R2        R3        A1        A2
           R1           0.46773
           R2           0.00649   0.42642
           R3           0.03993   0.00649   0.46773
           A1          -0.00223   0.00484  -0.00223   0.15072
           A2           0.00445  -0.00968   0.00445   0.01856   0.12288
           A3          -0.00223   0.00484  -0.00223  -0.00928   0.01856
           D1          -0.00000  -0.00000  -0.00000   0.00000  -0.00000
                          A3        D1
           A3           0.15072
           D1           0.00000   0.00632
 Use linear search instead of GDIIS.
     Eigenvalues ---    0.00632   0.10372   0.16000   0.42589   0.42780
     Eigenvalues ---    0.508791000.00000
 RFO step:  Lambda=-2.16748776D-05 EMin= 6.31539610D-03
 Quartic linear search produced a step of  0.04011.
 Iteration  1 RMS(Cart)=  0.00365542 RMS(Int)=  0.00001019
 Iteration  2 RMS(Cart)=  0.00001042 RMS(Int)=  0.00000000
 Iteration  3 RMS(Cart)=  0.00000000 RMS(Int)=  0.00000000
 ClnCor:  largest displacement from symmetrization is 5.48D-14 for atom     1.
 Variable       Old X    -DE/DX   Delta X   Delta X   Delta X     New X
                                 (Linear)    (Quad)   (Total)
    R1        1.89024   0.00199   0.00006   0.00393   0.00399   1.89423
    R2        1.89205   0.00131  -0.00086   0.00356   0.00270   1.89475
    R3        1.89024   0.00199   0.00006   0.00393   0.00399   1.89423
    A1        2.09061   0.00041   0.00318   0.00057   0.00375   2.09436
    A2        2.10196  -0.00081  -0.00635  -0.00114  -0.00750   2.09447
    A3        2.09061   0.00041   0.00318   0.00057   0.00375   2.09436
    D1        3.14159   0.00000   0.00000   0.00000   0.00000   3.14159
         Item               Value     Threshold  Converged?
 Maximum Force            0.001994     0.000450     NO 
 RMS     Force            0.001233     0.000300     NO 
 Maximum Displacement     0.005745     0.001800     NO 
 RMS     Displacement     0.003658     0.001200     NO 
 Predicted change in Energy=-1.451895D-05
 GradGradGradGradGradGradGradGradGradGradGradGradGradGradGradGradGradGrad

 Leave Link  103 at Sun Sep 15 16:41:11 2024, MaxMem=   13107200 cpu:       0.0
 (Enter /programs/64bit/g09/g09-gfortran/bin/l202.exe)
                          Input orientation:                          
 ---------------------------------------------------------------------
 Center     Atomic      Atomic             Coordinates (Angstroms)
 Number     Number       Type             X           Y           Z
 ---------------------------------------------------------------------
      1          7           0        0.080845    0.000000   -0.028583
      2          1           0       -0.102284   -0.000000    0.956930
      3          1           0        1.026159   -0.000000   -0.362802
      4          1           0       -0.681022    0.000000   -0.679989
 ---------------------------------------------------------------------
                    Distance matrix (angstroms):
                    1          2          3          4
     1  N    0.000000
     2  H    1.002383   0.000000
     3  H    1.002657   1.736398   0.000000
     4  H    1.002383   1.736214   1.736398   0.000000
 Stoichiometry    H3N
 Framework group  C2V[C2(HN),SGV(H2)]
 Deg. of freedom     3
 Full point group                 C2V     NOp   4
 Largest Abelian subgroup         C2V     NOp   4
 Largest concise Abelian subgroup C2      NOp   2
                         Standard orientation:                         
 ---------------------------------------------------------------------
 Center     Atomic      Atomic             Coordinates (Angstroms)
 Number     Number       Type             X           Y           Z
 ---------------------------------------------------------------------
      1          7           0       -0.000000    0.000000    0.000034
      2          1           0        0.000000    0.868107    0.501194
      3          1           0        0.000000   -0.000000   -1.002623
      4          1           0       -0.000000   -0.868107    0.501194
 ---------------------------------------------------------------------
 Rotational constants (GHZ):    332.7019082    332.6083620    166.3275643
 Leave Link  202 at Sun Sep 15 16:41:11 2024, MaxMem=   13107200 cpu:       0.0
 (Enter /programs/64bit/g09/g09-gfortran/bin/l301.exe)
 Standard basis: 6-31+G (6D, 7F)
 Ernie: Thresh=  0.10000D-02 Tol=  0.10000D-05 Strict=F.
 There are    11 symmetry adapted basis functions of A1  symmetry.
 There are     0 symmetry adapted basis functions of A2  symmetry.
 There are     3 symmetry adapted basis functions of B1  symmetry.
[...]
 Orbital energies and kinetic energies (alpha):
                                 1                 2
   1         (A1)--O         -14.305213         22.051850
   2         (A1)--O          -0.843618          1.856918
   3         (B2)--O          -0.490158          1.331406
   4         (A1)--O          -0.490090          1.331219
   5         (B1)--O          -0.240244          1.508228
   6         (A1)--V           0.029413          0.587491
   7         (B2)--V           0.084639          0.382895
   8         (A1)--V           0.084649          0.383050
   9         (B1)--V           0.117561          0.494365
  10         (A1)--V           0.211472          0.918535
  11         (B2)--V           0.211559          0.918507
  12         (A1)--V           0.217091          0.928711
  13         (B2)--V           0.851831          2.697719
  14         (A1)--V           0.851866          2.698773
  15         (B1)--V           0.882905          2.878480
  16         (A1)--V           1.039650          2.517327
  17         (A1)--V           1.070385          2.688373
  18         (B2)--V           1.070539          2.689803
  19         (A1)--V           1.179629          2.946483
 Total kinetic energy from orbitals= 5.615924200806D+01
  Exact polarizability:  12.513  -0.000   8.734   0.000  -0.000   8.737
 Approx polarizability:  11.811   0.000   9.960  -0.000   0.000   9.964
 No NMR shielding tensors so no spin-rotation constants.
 Leave Link  601 at Sun Sep 15 16:41:19 2024, MaxMem=   13107200 cpu:       0.1
 (Enter /programs/64bit/g09/g09-gfortran/bin/l701.exe)
 Compute integral second derivatives.
 ... and contract with generalized density number  0.
 Leave Link  701 at Sun Sep 15 16:41:19 2024, MaxMem=   13107200 cpu:       0.2
 (Enter /programs/64bit/g09/g09-gfortran/bin/l702.exe)
 L702 exits ... SP integral derivatives will be done elsewhere.
 Leave Link  702 at Sun Sep 15 16:41:19 2024, MaxMem=   13107200 cpu:       0.0
 (Enter /programs/64bit/g09/g09-gfortran/bin/l703.exe)
 Compute integral second derivatives, UseDBF=F ICtDFT=           0.
 Integral derivatives from FoFDir, PRISM(SPDF).
 Calling FoFJK, ICntrl=    100127 FMM=F ISym2X=1 I1Cent= 0 IOpClX= 0 NMat=1 NMatS=1 NMatT=0.
 FoFCou: FMM=F IPFlag=           0 FMFlag=      100000 FMFlg1=         800
         NFxFlg=           0 DoJE=F BraDBF=F KetDBF=F FulRan=T
         Omega=  0.000000  0.000000  1.000000  0.000000  0.000000 ICntrl=  100127 IOpCl=  0
         NMat0=    1 NMatS0=    1 NMatT0=    0 NMatD0=    1 NMtDS0=    0 NMtDT0=    0
         I1Cent=           0 NGrid=           0.
 Petite list used in FoFCou.
 Leave Link  703 at Sun Sep 15 16:41:20 2024, MaxMem=   13107200 cpu:       1.1
 (Enter /programs/64bit/g09/g09-gfortran/bin/l716.exe)
 Dipole        =-6.10782220D-17-2.01227923D-16-9.55690942D-05
 Polarizability= 1.25127002D+01-9.24572649D-11 8.73385858D+00
                 2.22316735D-10-1.41990531D-10 8.73685956D+00
 Full mass-weighted force constant matrix:
 Low frequencies --- -270.1409  -66.6867    0.0008    0.0009    0.0018    6.0847
 Low frequencies ---   78.3494 1632.9974 1633.6638
 ******    1 imaginary frequencies (negative Signs) ****** 
 Diagonal vibrational polarizability:
      277.7145887       0.7656513       0.7657303
 Harmonic frequencies (cm**-1), IR intensities (KM/Mole), Raman scattering
 activities (A**4/AMU), depolarization ratios for plane and unpolarized
 incident light, reduced masses (AMU), force constants (mDyne/A),
 and normal coordinates:
                     1                      2                      3
                    B1                     A1                     B2
 Frequencies --  -269.6460              1632.9974              1633.6632
 Red. masses --     1.2067                 1.0937                 1.0936
 Frc consts  --     0.0517                 1.7183                 1.7197
 IR Inten    --   750.3324                68.9414                68.9881
  Atom  AN      X      Y      Z        X      Y      Z        X      Y      Z
     1   7     0.12   0.00  -0.00    -0.00  -0.00   0.08     0.00   0.08   0.00
     2   1    -0.57  -0.00  -0.00     0.00   0.38  -0.59    -0.00  -0.16   0.38
     3   1    -0.57   0.00   0.00     0.00   0.00   0.06    -0.00  -0.81   0.00
     4   1    -0.57  -0.00   0.00     0.00  -0.38  -0.59    -0.00  -0.16  -0.38
                     4                      5                      6
                    A1                     A1                     B2
 Frequencies --  3615.2870              3836.2441              3838.4204
 Red. masses --     1.0078                 1.1030                 1.1031
 Frc consts  --     7.7611                 9.5641                 9.5753
 IR Inten    --     0.0017                38.2777                38.3323
  Atom  AN      X      Y      Z        X      Y      Z        X      Y      Z
     1   7     0.00   0.00   0.00     0.00   0.00   0.09    -0.00   0.09  -0.00
     2   1    -0.00   0.50   0.29    -0.00  -0.36  -0.19     0.00  -0.60  -0.36
     3   1    -0.00   0.00  -0.58    -0.00   0.00  -0.81     0.00   0.02   0.00
     4   1    -0.00  -0.50   0.29    -0.00   0.36  -0.19     0.00  -0.60   0.36

 -------------------
 - Thermochemistry -
 -------------------
 Temperature   298.150 Kelvin.  Pressure   1.00000 Atm.
 Atom     1 has atomic number  7 and mass  14.00307
 Atom     2 has atomic number  1 and mass   1.00783
 Atom     3 has atomic number  1 and mass   1.00783
 Atom     4 has atomic number  1 and mass   1.00783
 Molecular mass:    17.02655 amu.
 Principal axes and moments of inertia in atomic units:
                           1         2         3
     Eigenvalues --     5.42450   5.42602  10.85052
           X           -0.00000   0.00000   1.00000
           Y            0.00000   1.00000  -0.00000
           Z            1.00000  -0.00000   0.00000
 This molecule is an asymmetric top.
 Rotational symmetry number  2.
 Rotational temperatures (Kelvin)     15.96715    15.96266     7.98245
 Rotational constants (GHZ):         332.70191   332.60836   166.32756
    1 imaginary frequencies ignored.
 Zero-point vibrational energy      87067.9 (Joules/Mol)
                                   20.80972 (Kcal/Mol)
 Vibrational temperatures:   2349.52  2350.47  5201.59  5519.49  5522.62
          (Kelvin)
 
 Zero-point correction=                           0.033162 (Hartree/Particle)
 Thermal correction to Energy=                    0.036001
 Thermal correction to Enthalpy=                  0.036945
 Thermal correction to Gibbs Free Energy=         0.014799
 Sum of electronic and zero-point Energies=            -56.509979
 Sum of electronic and thermal Energies=               -56.507140
 Sum of electronic and thermal Enthalpies=             -56.506196
 Sum of electronic and thermal Free Energies=          -56.528342
 
                     E (Thermal)             CV                S
                      KCal/Mol        Cal/Mol-Kelvin    Cal/Mol-Kelvin
 Total                   22.591              6.055             46.609
 Electronic               0.000              0.000              0.000
 Translational            0.889              2.981             34.441
 Rotational               0.889              2.981             12.155
 Vibrational             20.813              0.093              0.013
                       Q            Log10(Q)             Ln(Q)
 Total Bot       0.155891D-06         -6.807178        -15.674107
 Total V=0       0.279535D+09          8.446436         19.448637
 Vib (Bot)       0.558103D-15        -15.253286        -35.121988
 Vib (V=0)       0.100076D+01          0.000328          0.000755
 Electronic      0.100000D+01          0.000000          0.000000
 Translational   0.276150D+07          6.441145         14.831285
 Rotational      0.101149D+03          2.004962          4.616597
 
                                                      NH3 with 6-31+G basis set
                                                             IR Spectrum
 
     33      3                                                                1                                                      
     88      6                                                                6                                                      
     33      1                                                                3                                                      
     86      5                                                                3                                                      
 
     XX                                                                       X                                                      
     XX                                                                       X                                                      
     XX                                                                       X                                                      
     XX                                                                       X                                                      
     XX                                                                       X                                                      
     XX                                                                       X                                                      
                                                                              X                                                      
                                                                              X                                                      
                                                                              X                                                      
                                                                              X                                                      
                                                                              X                                                      
                                                                              X                                                      
                                                                              X                                                      
                                                                              X                                                      
                                                                              X                                                      
                                                                              X                                                      
                                                                              X                                                      
                                                                              X                                                      
                                                                              X                                                      
                                                                              X                                                      
 
 ***** Axes restored to original set *****
 -------------------------------------------------------------------
 Center     Atomic                   Forces (Hartrees/Bohr)
 Number     Number              X              Y              Z
 -------------------------------------------------------------------
      1        7           0.000243228    0.000000000   -0.000085994
      2        1          -0.000010884    0.000000000    0.000063203
      3        1          -0.000184153    0.000000000    0.000065108
      4        1          -0.000048191   -0.000000000   -0.000042317
 -------------------------------------------------------------------
 Cartesian Forces:  Max     0.000243228 RMS     0.000097011
 Force constants in Cartesian coordinates: 
                1             2             3             4             5 
      1  0.844929D+00
      2  0.000000D+00 -0.684187D-02
      3  0.339174D-03  0.000000D+00  0.845768D+00
      4 -0.873657D-01  0.000000D+00  0.748894D-01  0.767643D-01
      5  0.000000D+00  0.239314D-02  0.000000D+00  0.000000D+00 -0.882707D-03
      6  0.748772D-01  0.000000D+00 -0.476442D+00 -0.797854D-01  0.000000D+00
      7 -0.443273D+00  0.000000D+00  0.130699D+00  0.104604D-02  0.000000D+00
      8  0.000000D+00  0.205560D-02  0.000000D+00  0.000000D+00 -0.797333D-03
      9  0.130699D+00  0.000000D+00 -0.119808D+00  0.341213D-01  0.000000D+00
     10 -0.314291D+00  0.000000D+00 -0.205928D+00  0.955533D-02  0.000000D+00
     11  0.000000D+00  0.239314D-02  0.000000D+00  0.000000D+00 -0.713095D-03
     12 -0.205916D+00  0.000000D+00 -0.249518D+00 -0.292253D-01  0.000000D+00
                6             7             8             9            10 
      6  0.491322D+00
      7 -0.714505D-02  0.456040D+00
      8  0.000000D+00  0.000000D+00 -0.460933D-03
      9 -0.318560D-02 -0.139288D+00  0.000000D+00  0.111320D+00
     10  0.120533D-01 -0.138135D-01  0.000000D+00 -0.255327D-01  0.318549D+00
     11  0.000000D+00  0.000000D+00 -0.797333D-03  0.000000D+00  0.000000D+00
     12 -0.116940D-01  0.157337D-01  0.000000D+00  0.116739D-01  0.219407D+00
               11            12 
     11 -0.882707D-03
     12  0.000000D+00  0.249538D+00
 Force constants in internal coordinates: 
                1             2             3             4             5 
      1  0.506147D+00
      2 -0.368130D-02  0.505286D+00
      3 -0.367846D-02 -0.368130D-02  0.506147D+00
      4  0.709430D-02  0.710301D-02 -0.141975D-01  0.741421D-01
      5  0.710324D-02 -0.142060D-01  0.710324D-02 -0.370659D-01  0.741318D-01
      6 -0.141975D-01  0.710301D-02  0.709430D-02 -0.370762D-01 -0.370659D-01
      7  0.000000D+00  0.000000D+00  0.000000D+00  0.000000D+00  0.000000D+00
                6             7 
      6  0.741421D-01
      7  0.000000D+00 -0.205665D-02
 Leave Link  716 at Sun Sep 15 16:41:20 2024, MaxMem=   13107200 cpu:       0.0
 (Enter /programs/64bit/g09/g09-gfortran/bin/l103.exe)

 GradGradGradGradGradGradGradGradGradGradGradGradGradGradGradGradGradGrad
 Berny optimization.
 Internal  Forces:  Max     0.000195324 RMS     0.000081397
 Search for a local minimum.
 Step number   1 out of a maximum of    2
 All quantities printed in internal units (Hartrees-Bohrs-Radians)
 Second derivative matrix not updated -- analytic derivatives used.
 The second derivative matrix:
                          R1        R2        R3        A1        A2
           R1           0.50615
           R2          -0.00368   0.50529
           R3          -0.00368  -0.00368   0.50615
           A1           0.00709   0.00710  -0.01420   0.07414
           A2           0.00710  -0.01421   0.00710  -0.03707   0.07413
           A3          -0.01420   0.00710   0.00709  -0.03708  -0.03707
           D1          -0.00000  -0.00000   0.00000  -0.00000   0.00000
                          A3        D1
           A3           0.07414
           D1           0.00000  -0.00206
     Eigenvalues ---   -0.00206   0.11006   0.11008   0.49849   0.51041
     Eigenvalues ---    0.510961000.00000
 Eigenvalue     1 is  -2.06D-03 should be greater than     0.000000 Eigenvector:
                          D1        A1        A2        A3        R2
   1                    1.00000   0.00000  -0.00000  -0.00000   0.00000
                          R1        R3
   1                    0.00000  -0.00000
 Angle between quadratic step and forces=   9.48 degrees.
 Linear search not attempted -- first point.
 Iteration  1 RMS(Cart)=  0.00011695 RMS(Int)=  0.00000000
 Iteration  2 RMS(Cart)=  0.00000000 RMS(Int)=  0.00000000
 ClnCor:  largest displacement from symmetrization is 1.94D-12 for atom     1.
 Variable       Old X    -DE/DX   Delta X   Delta X   Delta X     New X
                                 (Linear)    (Quad)   (Total)
    R1        1.89423   0.00006   0.00000   0.00013   0.00013   1.89436
    R2        1.89475  -0.00020   0.00000  -0.00039  -0.00039   1.89436
    R3        1.89423   0.00006   0.00000   0.00013   0.00013   1.89436
    A1        2.09436  -0.00000   0.00000   0.00003   0.00003   2.09439
    A2        2.09447   0.00000   0.00000  -0.00006  -0.00006   2.09441
    A3        2.09436  -0.00000   0.00000   0.00003   0.00003   2.09439
    D1        3.14159   0.00000   0.00000  -0.00000   0.00000   3.14159
         Item               Value     Threshold  Converged?
 Maximum Force            0.000195     0.000450     YES
 RMS     Force            0.000081     0.000300     YES
 Maximum Displacement     0.000222     0.001800     YES
 RMS     Displacement     0.000117     0.001200     YES
 Predicted change in Energy=-4.583725D-08
 Optimization completed.
    -- Stationary point found.
                           ----------------------------
                           !   Optimized Parameters   !
                           ! (Angstroms and Degrees)  !
 --------------------------                            --------------------------
 ! Name  Definition              Value          Derivative Info.                !
 --------------------------------------------------------------------------------
 ! R1    R(1,2)                  1.0024         -DE/DX =    0.0001              !
 ! R2    R(1,3)                  1.0027         -DE/DX =   -0.0002              !
 ! R3    R(1,4)                  1.0024         -DE/DX =    0.0001              !
 ! A1    A(2,1,3)              119.998          -DE/DX =    0.0                 !
 ! A2    A(2,1,4)              120.0041         -DE/DX =    0.0                 !
 ! A3    A(3,1,4)              119.998          -DE/DX =    0.0                 !
 ! D1    D(2,1,4,3)            180.0            -DE/DX =    0.0                 !
 --------------------------------------------------------------------------------
 GradGradGradGradGradGradGradGradGradGradGradGradGradGradGradGradGradGrad

 Leave Link  103 at Sun Sep 15 16:41:20 2024, MaxMem=   13107200 cpu:       0.0
 (Enter /programs/64bit/g09/g09-gfortran/bin/l9999.exe)
 1\1\GINC-MOLMOD\Freq\RB3LYP\6-31+G\H3N1\OSPITE\15-Sep-2024\0\\#P Geom=
 AllCheck Guess=TCheck SCRF=Check GenChk RB3LYP/6-31+G Freq\\NH3 with 6
 -31+G basis set\\0,1\N,0.0808454772,0.,-0.0285831926\H,-0.1022843274,0
 .,0.9569297545\H,1.0261591144,0.,-0.3628020342\H,-0.6810224933,0.,-0.6
 799889722\\Version=EM64L-G09RevA.02\State=1-A1\HF=-56.543141\RMSD=1.98
 3e-11\RMSF=9.701e-05\ZeroPoint=0.0331624\Thermal=0.0360006\Dipole=0.00
 00901,0.,-0.0000319\DipoleDeriv=-0.5155546,0.,-0.0000761,0.,-1.383416,
 0.,-0.0000761,0.,-0.515743,0.2019873,0.,0.0116333,0.,0.4611091,0.,0.01
 15981,0.,0.1417899,0.1467186,0.,0.0203267,0.,0.4611977,0.,0.0203267,0.
 ,0.1970245,0.1668486,0.,-0.0318838,0.,0.4611091,0.,-0.0318486,0.,0.176
 9286\Polar=8.7365261,0.,12.5127002,-0.0009431,0.,8.734192\PG=C02V [C2(
 H1N1),SGV(H2)]\NImag=1\\0.84492886,0.,-0.00684187,0.00033917,0.,0.8457
 6827,-0.08736570,0.,0.07488943,0.07676433,0.,0.00239314,0.,0.,-0.00088
 271,0.07487716,0.,-0.47644249,-0.07978543,0.,0.49132206,-0.44327263,0.
 ,0.13069939,0.00104604,0.,-0.00714505,0.45604004,0.,0.00205560,0.,0.,-
 0.00079733,0.,0.,-0.00046093,0.13069939,0.,-0.11980814,0.03412134,0.,-
 0.00318560,-0.13928799,0.,0.11131984,-0.31429054,0.,-0.20592800,0.0095
 5533,0.,0.01205332,-0.01381345,0.,-0.02553274,0.31854866,0.,0.00239314
 ,0.,0.,-0.00071310,0.,0.,-0.00079733,0.,0.,-0.00088271,-0.20591573,0.,
 -0.24951765,-0.02922534,0.,-0.01169397,0.01573365,0.,0.01167390,0.2194
 0742,0.,0.24953772\\-0.00024323,0.,0.00008599,0.00001088,0.,-0.0000632
 0,0.00018415,0.,-0.00006511,0.00004819,0.,0.00004232\\\@


 IF YOU'RE NOT PART OF THE SOLUTION,
 THEN YOU'RE PART OF THE PRECIPITATE.
 Job cpu time:  0 days  0 hours  0 minutes  6.8 seconds.
 File lengths (MBytes):  RWF=      5 Int=      0 D2E=      0 Chk=      1 Scr=      1
 Normal termination of Gaussian 09 at Sun Sep 15 16:41:20 2024.
