 Entering Gaussian System, Link 0=/programs/64bit/g09/g09-gfortran/bin/g09
 Input=nh3_opt.com
 Output=nh3_opt.log
 Initial command:
 /programs/64bit/g09/g09-gfortran/bin/l1.exe /home/ospite/Desktop/MMfP/Project9/NH3/reactants/NH3/Gau-2681.inp -scrdir=/home/ospite/Desktop/MMfP/Project9/NH3/reactants/NH3/
 Entering Link 1 = /programs/64bit/g09/g09-gfortran/bin/l1.exe PID=      2682.
  
 Copyright (c) 1988,1990,1992,1993,1995,1998,2003,2009, Gaussian, Inc.
                  All Rights Reserved.
  
 This is part of the Gaussian(R) 09 program.  It is based on
 the Gaussian(R) 03 system (copyright 2003, Gaussian, Inc.),
 the Gaussian(R) 98 system (copyright 1998, Gaussian, Inc.),
 the Gaussian(R) 94 system (copyright 1995, Gaussian, Inc.),
 the Gaussian 92(TM) system (copyright 1992, Gaussian, Inc.),
 the Gaussian 90(TM) system (copyright 1990, Gaussian, Inc.),
 the Gaussian 88(TM) system (copyright 1988, Gaussian, Inc.),
 the Gaussian 86(TM) system (copyright 1986, Carnegie Mellon
 University), and the Gaussian 82(TM) system (copyright 1983,
 Carnegie Mellon University). Gaussian is a federally registered
 trademark of Gaussian, Inc.
  
 This software contains proprietary and confidential information,
 including trade secrets, belonging to Gaussian, Inc.
  
 This software is provided under written license and may be
 used, copied, transmitted, or stored only in accord with that
 written license.
  
 The following legend is applicable only to US Government
 contracts under FAR:
  
                    RESTRICTED RIGHTS LEGEND
  
 Use, reproduction and disclosure by the US Government is
 subject to restrictions as set forth in subparagraphs (a)
 and (c) of the Commercial Computer Software - Restricted
 Rights clause in FAR 52.227-19.
  
 Gaussian, Inc.
 340 Quinnipiac St., Bldg. 40, Wallingford CT 06492
  
  
 ---------------------------------------------------------------
 Warning -- This program may not be used in any manner that
 competes with the business of Gaussian, Inc. or will provide
 assistance to any competitor of Gaussian, Inc.  The licensee
 of this program is prohibited from giving any competitor of
 Gaussian, Inc. access to this program.  By using this program,
 the user acknowledges that Gaussian, Inc. is engaged in the
 business of creating and licensing software in the field of
 computational chemistry and represents and warrants to the
 licensee that it is not a competitor of Gaussian, Inc. and that
 it will not use this program in any manner prohibited above.
 ---------------------------------------------------------------
  

 Cite this work as:
 Gaussian 09, Revision A.02,
 M. J. Frisch, G. W. Trucks, H. B. Schlegel, G. E. Scuseria, 
 M. A. Robb, J. R. Cheeseman, G. Scalmani, V. Barone, B. Mennucci, 
 G. A. Petersson, H. Nakatsuji, M. Caricato, X. Li, H. P. Hratchian, 
 A. F. Izmaylov, J. Bloino, G. Zheng, J. L. Sonnenberg, M. Hada, 
 M. Ehara, K. Toyota, R. Fukuda, J. Hasegawa, M. Ishida, T. Nakajima, 
 Y. Honda, O. Kitao, H. Nakai, T. Vreven, J. A. Montgomery, Jr., 
 J. E. Peralta, F. Ogliaro, M. Bearpark, J. J. Heyd, E. Brothers, 
 K. N. Kudin, V. N. Staroverov, R. Kobayashi, J. Normand, 
 K. Raghavachari, A. Rendell, J. C. Burant, S. S. Iyengar, J. Tomasi, 
 M. Cossi, N. Rega, J. M. Millam, M. Klene, J. E. Knox, J. B. Cross, 
 V. Bakken, C. Adamo, J. Jaramillo, R. Gomperts, R. E. Stratmann, 
 O. Yazyev, A. J. Austin, R. Cammi, C. Pomelli, J. W. Ochterski, 
 R. L. Martin, K. Morokuma, V. G. Zakrzewski, G. A. Voth, 
 P. Salvador, J. J. Dannenberg, S. Dapprich, A. D. Daniels, 
 O. Farkas, J. B. Foresman, J. V. Ortiz, J. Cioslowski, 
 and D. J. Fox, Gaussian, Inc., Wallingford CT, 2009.
 
 ******************************************
 Gaussian 09:  EM64L-G09RevA.02 11-Jun-2009
                15-Sep-2024 
 ******************************************
 %mem=100MB
 ----------------------------------------------
 #p b3lyp/6-31+g(d,p) opt freq pop=full gfinput
 ----------------------------------------------
 1/14=-1,18=20,19=15,26=3,38=1/1,3;
 2/9=110,12=2,17=6,18=5,40=1/2;
 3/5=1,6=6,7=111,11=2,16=1,24=10,25=1,30=1,71=1,74=-5/1,2,3;
 4//1;
 5/5=2,38=5/2;
 6/7=3,28=1/1;
 7//1,2,3,16;
 1/14=-1,18=20,19=15/3(2);
 2/9=110/2;
 99//99;
 2/9=110/2;
 3/5=1,6=6,7=111,11=2,16=1,25=1,30=1,71=1,74=-5/1,2,3;
 4/5=5,16=3/1;
 5/5=2,38=5/2;
 7//1,2,3,16;
 1/14=-1,18=20,19=15/3(-5);
 2/9=110/2;
 6/7=3,19=2,28=1/1;
 99/9=1/99;
 Leave Link    1 at Sun Sep 15 20:57:47 2024, MaxMem=   13107200 cpu:       0.1
 (Enter /programs/64bit/g09/g09-gfortran/bin/l101.exe)
 ------------------------------
 NH3 with 6-31+g(d,p) basis set
 ------------------------------
 Symbolic Z-matrix:
 Charge =  0 Multiplicity = 1
 n
 h                    1    hn2
 h                    1    hn3      2    hnh3
 h                    1    hn4      3    hnh4     2    dih4     0
       Variables:
  hn2                   1.03                     
  hn3                   1.03                     
  hnh3                110.                       
  hn4                   1.03                     
  hnh4                110.                       
  dih4                120.                       
 
 NAtoms=      4 NQM=      4 NQMF=      0 NMic=      0 NMicF=      0 NTot=      4.
                    Isotopes and Nuclear Properties:
 (Nuclear quadrupole moments (NQMom) in fm**2, nuclear magnetic moments (NMagM)
  in nuclear magnetons)

  Atom         1           2           3           4
 IAtWgt=          14           1           1           1
 AtmWgt=  14.0030740   1.0078250   1.0078250   1.0078250
 NucSpn=           2           1           1           1
 AtZEff=   0.0000000   0.0000000   0.0000000   0.0000000
 NQMom=    2.0440000   0.0000000   0.0000000   0.0000000
 NMagM=    0.4037610   2.7928460   2.7928460   2.7928460
 Leave Link  101 at Sun Sep 15 20:57:47 2024, MaxMem=   13107200 cpu:       0.2
 (Enter /programs/64bit/g09/g09-gfortran/bin/l103.exe)

 GradGradGradGradGradGradGradGradGradGradGradGradGradGradGradGradGradGrad
 Berny optimization.
 Initialization pass.
                           ----------------------------
                           !    Initial Parameters    !
                           ! (Angstroms and Degrees)  !
 --------------------------                            --------------------------
 ! Name  Definition              Value          Derivative Info.                !
 --------------------------------------------------------------------------------
 ! R1    R(1,2)                  1.03           estimate D2E/DX2                !
 ! R2    R(1,3)                  1.03           estimate D2E/DX2                !
 ! R3    R(1,4)                  1.03           estimate D2E/DX2                !
 ! A1    A(2,1,3)              110.0            estimate D2E/DX2                !
 ! A2    A(2,1,4)              108.9373         estimate D2E/DX2                !
 ! A3    A(3,1,4)              110.0            estimate D2E/DX2                !
 ! D1    D(2,1,4,3)            120.6423         estimate D2E/DX2                !
 --------------------------------------------------------------------------------
 Trust Radius=3.00D-01 FncErr=1.00D-07 GrdErr=1.00D-06
 Number of steps in this run=  20 maximum allowed number of steps= 100.
 GradGradGradGradGradGradGradGradGradGradGradGradGradGradGradGradGradGrad

 Leave Link  103 at Sun Sep 15 20:57:47 2024, MaxMem=   13107200 cpu:       0.0
 (Enter /programs/64bit/g09/g09-gfortran/bin/l202.exe)
                          Input orientation:                          
 ---------------------------------------------------------------------
 Center     Atomic      Atomic             Coordinates (Angstroms)
 Number     Number       Type             X           Y           Z
 ---------------------------------------------------------------------
      1          7           0        0.000000    0.000000    0.000000
      2          1           0        0.000000    0.000000    1.030000
      3          1           0        0.967883    0.000000   -0.352281
      4          1           0       -0.496553    0.838212   -0.334269
 ---------------------------------------------------------------------
                    Distance matrix (angstroms):
                    1          2          3          4
     1  N    0.000000
     2  H    1.030000   0.000000
     3  H    1.030000   1.687453   0.000000
     4  H    1.030000   1.676423   1.687453   0.000000
 Stoichiometry    H3N
 Framework group  CS[SG(HN),X(H2)]
 Deg. of freedom     4
 Full point group                 CS      NOp   2
 Largest Abelian subgroup         CS      NOp   2
 Largest concise Abelian subgroup CS      NOp   2
                         Standard orientation:                         
 ---------------------------------------------------------------------
 Center     Atomic      Atomic             Coordinates (Angstroms)
 Number     Number       Type             X           Y           Z
 ---------------------------------------------------------------------
      1          7           0       -0.000000    0.102113    0.000000
      2          1           0        0.488145   -0.244320    0.838212
      3          1           0       -0.976290   -0.226152    0.000000
      4          1           0        0.488145   -0.244320   -0.838212
 ---------------------------------------------------------------------
 Rotational constants (GHZ):    296.5448271    292.2601716    176.8685344
 Leave Link  202 at Sun Sep 15 20:57:47 2024, MaxMem=   13107200 cpu:       0.0
 (Enter /programs/64bit/g09/g09-gfortran/bin/l301.exe)
 Standard basis: 6-31+G(d,p) (6D, 7F)
 Ernie: Thresh=  0.10000D-02 Tol=  0.10000D-05 Strict=F.
 AO basis set in the form of general basis input (Overlap normalization):
      1 0
 S   6 1.00       0.000000000000
      0.4173511460D+04  0.1834772160D-02
      0.6274579110D+03  0.1399462700D-01
      0.1429020930D+03  0.6858655181D-01
      0.4023432930D+02  0.2322408730D+00
      0.1282021290D+02  0.4690699481D+00
      0.4390437010D+01  0.3604551991D+00
 SP   3 1.00       0.000000000000
      0.1162636186D+02 -0.1149611817D+00  0.6757974388D-01
      0.2716279807D+01 -0.1691174786D+00  0.3239072959D+00
      0.7722183966D+00  0.1145851947D+01  0.7408951398D+00
 SP   1 1.00       0.000000000000
      0.2120314975D+00  0.1000000000D+01  0.1000000000D+01
 SP   1 1.00       0.000000000000
      0.6390000000D-01  0.1000000000D+01  0.1000000000D+01
 D   1 1.00       0.000000000000
      0.8000000000D+00  0.1000000000D+01
 ****
      2 0
 S   3 1.00       0.000000000000
      0.1873113696D+02  0.3349460434D-01
      0.2825394365D+01  0.2347269535D+00
      0.6401216923D+00  0.8137573261D+00
 S   1 1.00       0.000000000000
      0.1612777588D+00  0.1000000000D+01
 P   1 1.00       0.000000000000
      0.1100000000D+01  0.1000000000D+01
 ****
      3 0
 S   3 1.00       0.000000000000
      0.1873113696D+02  0.3349460434D-01
      0.2825394365D+01  0.2347269535D+00
      0.6401216923D+00  0.8137573261D+00
 S   1 1.00       0.000000000000
      0.1612777588D+00  0.1000000000D+01
 P   1 1.00       0.000000000000
      0.1100000000D+01  0.1000000000D+01
 ****
      4 0
 S   3 1.00       0.000000000000
      0.1873113696D+02  0.3349460434D-01
      0.2825394365D+01  0.2347269535D+00
      0.6401216923D+00  0.8137573261D+00
 S   1 1.00       0.000000000000
      0.1612777588D+00  0.1000000000D+01
 P   1 1.00       0.000000000000
      0.1100000000D+01  0.1000000000D+01
 ****

 There are    23 symmetry adapted basis functions of A'  symmetry.
 There are    11 symmetry adapted basis functions of A"  symmetry.
 Integral buffers will be    131072 words long.
 Raffenetti 2 integral format.
 Two-electron integral symmetry is turned on.
    34 basis functions,    53 primitive gaussians,    34 cartesian basis functions
     5 alpha electrons        5 beta electrons
       nuclear repulsion energy        11.7318987429 Hartrees.
 IExCor=  402 DFT=T Ex+Corr=B3LYP ExCW=0 ScaHFX=  0.200000
 ScaDFX=  0.800000  0.720000  1.000000  0.810000 ScalE2=  1.000000  1.000000
 IRadAn=      0 IRanWt=     -1 IRanGd=            0 ICorTp=0
 NAtoms=    4 NActive=    4 NUniq=    3 SFac= 1.33D+00 NAtFMM=   80 NAOKFM=F Big=F
 Leave Link  301 at Sun Sep 15 20:57:48 2024, MaxMem=   13107200 cpu:       0.1
 (Enter /programs/64bit/g09/g09-gfortran/bin/l302.exe)
 NPDir=0 NMtPBC=     1 NCelOv=     1 NCel=       1 NClECP=     1 NCelD=      1
         NCelK=      1 NCelE2=     1 NClLst=     1 CellRange=     0.0.
 One-electron integrals computed using PRISM.
 One-electron integral symmetry used in STVInt
 NBasis=    34 RedAO= T  NBF=    23    11
 NBsUse=    34 1.00D-06 NBFU=    23    11
 Precomputing XC quadrature grid using
 IXCGrd= 2 IRadAn=           0 IRanWt=          -1 IRanGd=           0 AccXCQ= 1.00D-10.
 NRdTot=     252 NPtTot=       31966 NUsed=       33795 NTot=       33827
 NSgBfM=    34    34    34    34    34 NAtAll=     4     4.
 Leave Link  302 at Sun Sep 15 20:57:48 2024, MaxMem=   13107200 cpu:       0.2
 (Enter /programs/64bit/g09/g09-gfortran/bin/l303.exe)
 DipDrv:  MaxL=1.
 Leave Link  303 at Sun Sep 15 20:57:48 2024, MaxMem=   13107200 cpu:       0.1
 (Enter /programs/64bit/g09/g09-gfortran/bin/l401.exe)
 Harris functional with IExCor=  402 diagonalized for initial guess.
 ExpMin= 6.39D-02 ExpMax= 4.17D+03 ExpMxC= 6.27D+02 IAcc=2 IRadAn=         0 AccDes= 0.00D+00
 HarFok:  IExCor=  402 AccDes= 0.00D+00 IRadAn=         0 IDoV= 1
 ScaDFX=  1.000000  1.000000  1.000000  1.000000
 FoFCou: FMM=F IPFlag=           0 FMFlag=      100000 FMFlg1=           0
         NFxFlg=           0 DoJE=T BraDBF=F KetDBF=T FulRan=T
         Omega=  0.000000  0.000000  1.000000  0.000000  0.000000 ICntrl=     500 IOpCl=  0
         NMat0=    1 NMatS0=    1 NMatT0=    0 NMatD0=    1 NMtDS0=    0 NMtDT0=    0
         I1Cent=           4 NGrid=           0.
 Petite list used in FoFCou.
 Harris En= -56.6043270947547    
 Initial guess orbital symmetries:
       Occupied  (A') (A') (A') (A") (A')
       Virtual   (A') (A') (A") (A') (A") (A') (A') (A') (A") (A')
                 (A") (A') (A') (A') (A') (A") (A') (A") (A') (A")
                 (A") (A') (A') (A") (A') (A') (A') (A") (A')
 The electronic state of the initial guess is 1-A'.
 Leave Link  401 at Sun Sep 15 20:57:49 2024, MaxMem=   13107200 cpu:       0.6
 (Enter /programs/64bit/g09/g09-gfortran/bin/l502.exe)
 Closed shell SCF:
 Requested convergence on RMS density matrix=1.00D-08 within 128 cycles.
 Requested convergence on MAX density matrix=1.00D-06.
 Requested convergence on             energy=1.00D-06.
 No special actions if energy rises.
 Using DIIS extrapolation, IDIIS=  1040.
 Integral symmetry usage will be decided dynamically.
        33746 words used for storage of precomputed grid.
 Keep R1 ints in memory in canonical form, NReq=1092090.
 IEnd=       55872 IEndB=       55872 NGot=    13107200 MDV=    12891821
 LenX=    12891821 LenY=    12890224
 Symmetry not used in FoFDir.
 MinBra= 0 MaxBra= 2 Meth= 1.
 IRaf=       0 NMat=   1 IRICut=       1 DoRegI=T DoRafI=F ISym2E= 0 JSym2E=0.
 Integral accuracy reduced to 1.0D-05 until final iterations.

 Cycle   1  Pass 0  IDiag  1:
 E= -56.4757240854368    
 DIIS: error= 6.18D-02 at cycle   1 NSaved=   1.
 NSaved= 1 IEnMin= 1 EnMin= -56.4757240854368     IErMin= 1 ErrMin= 6.18D-02
 ErrMax= 6.18D-02 EMaxC= 1.00D-01 BMatC= 9.99D-02 BMatP= 9.99D-02
 IDIUse=3 WtCom= 3.82D-01 WtEn= 6.18D-01
 Coeff-Com:  0.100D+01
 Coeff-En:   0.100D+01
 Coeff:      0.100D+01
 Gap=     0.138 Goal=   None    Shift=    0.000
 GapD=    0.138 DampG=1.000 DampE=0.500 DampFc=0.5000 IDamp=-1.
 Damping current iteration by 5.00D-01
 RMSDP=1.62D-02 MaxDP=2.20D-01              OVMax= 3.09D-01

 Cycle   2  Pass 0  IDiag  1:
 E= -56.4968344433334     Delta-E=       -0.021110357897 Rises=F Damp=T
 DIIS: error= 1.97D-02 at cycle   2 NSaved=   2.
 NSaved= 2 IEnMin= 2 EnMin= -56.4968344433334     IErMin= 2 ErrMin= 1.97D-02
 ErrMax= 1.97D-02 EMaxC= 1.00D-01 BMatC= 9.87D-03 BMatP= 9.99D-02
 IDIUse=3 WtCom= 8.03D-01 WtEn= 1.97D-01
 Coeff-Com:  0.229D+00 0.771D+00
 Coeff-En:   0.387D+00 0.613D+00
 Coeff:      0.260D+00 0.740D+00
 Gap=     0.262 Goal=   None    Shift=    0.000
 RMSDP=2.49D-03 MaxDP=3.72D-02 DE=-2.11D-02 OVMax= 2.01D-01

 Cycle   3  Pass 0  IDiag  1:
 E= -56.5661427562835     Delta-E=       -0.069308312950 Rises=F Damp=F
 DIIS: error= 1.93D-03 at cycle   3 NSaved=   3.
 NSaved= 3 IEnMin= 3 EnMin= -56.5661427562835     IErMin= 3 ErrMin= 1.93D-03
 ErrMax= 1.93D-03 EMaxC= 1.00D-01 BMatC= 1.20D-04 BMatP= 9.87D-03
 IDIUse=3 WtCom= 9.81D-01 WtEn= 1.93D-02
 Coeff-Com:  0.195D-01-0.472D-01 0.103D+01
 Coeff-En:   0.000D+00 0.000D+00 0.100D+01
 Coeff:      0.191D-01-0.463D-01 0.103D+01
 Gap=     0.280 Goal=   None    Shift=    0.000
 RMSDP=2.19D-04 MaxDP=2.43D-03 DE=-6.93D-02 OVMax= 2.64D-03

 Cycle   4  Pass 0  IDiag  1:
 E= -56.5662230779390     Delta-E=       -0.000080321656 Rises=F Damp=F
 DIIS: error= 4.69D-04 at cycle   4 NSaved=   4.
 NSaved= 4 IEnMin= 4 EnMin= -56.5662230779390     IErMin= 4 ErrMin= 4.69D-04
 ErrMax= 4.69D-04 EMaxC= 1.00D-01 BMatC= 5.85D-06 BMatP= 1.20D-04
 IDIUse=3 WtCom= 9.95D-01 WtEn= 4.69D-03
 Coeff-Com:  0.646D-02-0.138D-01 0.124D+00 0.884D+00
 Coeff-En:   0.000D+00 0.000D+00 0.000D+00 0.100D+01
 Coeff:      0.643D-02-0.137D-01 0.123D+00 0.884D+00
 Gap=     0.280 Goal=   None    Shift=    0.000
 RMSDP=4.22D-05 MaxDP=6.05D-04 DE=-8.03D-05 OVMax= 8.65D-04

 Cycle   5  Pass 0  IDiag  1:
 E= -56.5662285330121     Delta-E=       -0.000005455073 Rises=F Damp=F
 DIIS: error= 7.08D-05 at cycle   5 NSaved=   5.
 NSaved= 5 IEnMin= 5 EnMin= -56.5662285330121     IErMin= 5 ErrMin= 7.08D-05
 ErrMax= 7.08D-05 EMaxC= 1.00D-01 BMatC= 1.06D-07 BMatP= 5.85D-06
 IDIUse=1 WtCom= 1.00D+00 WtEn= 0.00D+00
 Coeff-Com:  0.202D-02-0.262D-02 0.213D-01 0.186D+00 0.793D+00
 Coeff:      0.202D-02-0.262D-02 0.213D-01 0.186D+00 0.793D+00
 Gap=     0.280 Goal=   None    Shift=    0.000
 RMSDP=8.29D-06 MaxDP=6.92D-05 DE=-5.46D-06 OVMax= 1.27D-04

 Initial convergence to 1.0D-05 achieved.  Increase integral accuracy.
 Cycle   6  Pass 1  IDiag  1:
 E= -56.5662326548891     Delta-E=       -0.000004121877 Rises=F Damp=F
 DIIS: error= 8.64D-06 at cycle   1 NSaved=   1.
 NSaved= 1 IEnMin= 1 EnMin= -56.5662326548891     IErMin= 1 ErrMin= 8.64D-06
 ErrMax= 8.64D-06 EMaxC= 1.00D-01 BMatC= 2.37D-09 BMatP= 2.37D-09
 IDIUse=1 WtCom= 1.00D+00 WtEn= 0.00D+00
 Coeff-Com:  0.100D+01
 Coeff:      0.100D+01
 Gap=     0.280 Goal=   None    Shift=    0.000
 RMSDP=8.29D-06 MaxDP=6.92D-05 DE=-4.12D-06 OVMax= 4.31D-05

 Cycle   7  Pass 1  IDiag  1:
 E= -56.5662326527613     Delta-E=        0.000000002128 Rises=F Damp=F
 DIIS: error= 1.33D-05 at cycle   2 NSaved=   2.
 NSaved= 2 IEnMin= 1 EnMin= -56.5662326548891     IErMin= 1 ErrMin= 8.64D-06
 ErrMax= 1.33D-05 EMaxC= 1.00D-01 BMatC= 5.05D-09 BMatP= 2.37D-09
 IDIUse=1 WtCom= 1.00D+00 WtEn= 0.00D+00
 Coeff-Com:  0.596D+00 0.404D+00
 Coeff:      0.596D+00 0.404D+00
 Gap=     0.280 Goal=   None    Shift=    0.000
 RMSDP=1.28D-06 MaxDP=1.94D-05 DE= 2.13D-09 OVMax= 2.36D-05

 Cycle   8  Pass 1  IDiag  1:
 E= -56.5662326570742     Delta-E=       -0.000000004313 Rises=F Damp=F
 DIIS: error= 4.27D-07 at cycle   3 NSaved=   3.
 NSaved= 3 IEnMin= 3 EnMin= -56.5662326570742     IErMin= 3 ErrMin= 4.27D-07
 ErrMax= 4.27D-07 EMaxC= 1.00D-01 BMatC= 5.98D-12 BMatP= 2.37D-09
 IDIUse=1 WtCom= 1.00D+00 WtEn= 0.00D+00
 Coeff-Com:  0.577D-01 0.565D-01 0.886D+00
 Coeff:      0.577D-01 0.565D-01 0.886D+00
 Gap=     0.280 Goal=   None    Shift=    0.000
 RMSDP=1.13D-07 MaxDP=1.02D-06 DE=-4.31D-09 OVMax= 1.44D-06

 Cycle   9  Pass 1  IDiag  1:
 E= -56.5662326570798     Delta-E=       -0.000000000006 Rises=F Damp=F
 DIIS: error= 1.02D-07 at cycle   4 NSaved=   4.
 NSaved= 4 IEnMin= 4 EnMin= -56.5662326570798     IErMin= 4 ErrMin= 1.02D-07
 ErrMax= 1.02D-07 EMaxC= 1.00D-01 BMatC= 2.56D-13 BMatP= 5.98D-12
 IDIUse=1 WtCom= 1.00D+00 WtEn= 0.00D+00
 Coeff-Com: -0.105D-01-0.393D-02 0.171D+00 0.844D+00
 Coeff:     -0.105D-01-0.393D-02 0.171D+00 0.844D+00
 Gap=     0.280 Goal=   None    Shift=    0.000
 RMSDP=2.01D-08 MaxDP=2.12D-07 DE=-5.66D-12 OVMax= 2.77D-07

 Cycle  10  Pass 1  IDiag  1:
 E= -56.5662326570802     Delta-E=       -0.000000000000 Rises=F Damp=F
 DIIS: error= 5.45D-09 at cycle   5 NSaved=   5.
 NSaved= 5 IEnMin= 5 EnMin= -56.5662326570802     IErMin= 5 ErrMin= 5.45D-09
 ErrMax= 5.45D-09 EMaxC= 1.00D-01 BMatC= 5.96D-16 BMatP= 2.56D-13
 IDIUse=1 WtCom= 1.00D+00 WtEn= 0.00D+00
 Coeff-Com:  0.550D-03 0.251D-03-0.195D-01-0.655D-01 0.108D+01
 Coeff:      0.550D-03 0.251D-03-0.195D-01-0.655D-01 0.108D+01
 Gap=     0.280 Goal=   None    Shift=    0.000
 RMSDP=2.11D-09 MaxDP=2.30D-08 DE=-3.98D-13 OVMax= 4.38D-08

 SCF Done:  E(RB3LYP) =  -56.5662326571     A.U. after   10 cycles
             Convg  =    0.2105D-08             -V/T =  2.0118
 KE= 5.590461325701D+01 PE=-1.551006463374D+02 EE= 3.089790168042D+01
 Leave Link  502 at Sun Sep 15 20:57:51 2024, MaxMem=   13107200 cpu:       2.5
 (Enter /programs/64bit/g09/g09-gfortran/bin/l601.exe)
 Copying SCF densities to generalized density rwf, IOpCl= 0 IROHF=0.

 **********************************************************************

            Population analysis using the SCF density.

 **********************************************************************

 Orbital symmetries:
       Occupied  (A') (A') (A') (A") (A')
       Virtual   (A') (A') (A") (A') (A") (A') (A') (A') (A") (A')
                 (A") (A') (A') (A') (A') (A") (A') (A") (A') (A")
                 (A") (A') (A') (A") (A') (A') (A') (A") (A')
 The electronic state is 1-A'.
 Alpha  occ. eigenvalues --  -14.32815  -0.84931  -0.46823  -0.46569  -0.26410
 Alpha virt. eigenvalues --    0.01628   0.08839   0.08891   0.11803   0.19037
 Alpha virt. eigenvalues --    0.19250   0.24107   0.82803   0.82841   0.87718
 Alpha virt. eigenvalues --    0.91242   0.91688   1.03932   1.11129   1.41545
 Alpha virt. eigenvalues --    1.41927   1.86593   2.04956   2.20007   2.20812
 Alpha virt. eigenvalues --    2.38924   2.39657   2.69837   2.92938   2.93671
 Alpha virt. eigenvalues --    3.22918   3.37591   3.38120   3.95704
     Molecular Orbital Coefficients:
                           1         2         3         4         5
                           O         O         O         O         O
     Eigenvalues --   -14.32815  -0.84931  -0.46823  -0.46569  -0.26410
   1 1   N  1S          0.99271  -0.20253   0.00068   0.00000  -0.06136
   2        2S          0.03452   0.42251  -0.00144   0.00000   0.14535
   3        2PX        -0.00001  -0.00008   0.48075   0.00000   0.00754
   4        2PY        -0.00121  -0.09124  -0.00618   0.00000   0.56285
   5        2PZ         0.00000   0.00000   0.00000   0.48132   0.00000
   6        3S          0.00419   0.43381  -0.00246   0.00000   0.22051
   7        3PX         0.00001  -0.00004   0.23228   0.00000   0.00516
   8        3PY         0.00052  -0.04487  -0.00287   0.00000   0.40670
   9        3PZ         0.00000   0.00000   0.00000   0.23343   0.00000
  10        4S         -0.00021   0.02353  -0.00049   0.00000  -0.02997
  11        4PX        -0.00000   0.00007   0.02358   0.00000   0.00180
  12        4PY        -0.00034  -0.00713  -0.00024   0.00000   0.15260
  13        4PZ         0.00000   0.00000   0.00000   0.02404   0.00000
  14        5XX        -0.00810  -0.00627  -0.01234   0.00000   0.00762
  15        5YY        -0.00822  -0.01321   0.00056   0.00000  -0.02471
  16        5ZZ        -0.00811  -0.00644   0.01198   0.00000   0.00773
  17        5XY        -0.00000  -0.00020  -0.02498   0.00000  -0.00033
  18        5XZ         0.00000   0.00000   0.00000   0.01391   0.00000
  19        5YZ         0.00000   0.00000   0.00000  -0.02530   0.00000
  20 2   H  1S          0.00020   0.14404   0.14283   0.24634  -0.06088
  21        2S         -0.00042   0.00561   0.08856   0.15373  -0.01790
  22        3PX         0.00006  -0.00880   0.00700  -0.00905   0.00250
  23        3PY        -0.00004   0.00456   0.00302   0.00548   0.01692
  24        3PZ         0.00011  -0.01523  -0.00914  -0.00324   0.00395
  25 3   H  1S          0.00020   0.14363  -0.28462   0.00000  -0.06175
  26        2S         -0.00042   0.00572  -0.17574   0.00000  -0.01880
  27        3PX        -0.00013   0.01764  -0.00878   0.00000  -0.00439
  28        3PY        -0.00004   0.00425  -0.00617   0.00000   0.01697
  29        3PZ         0.00000   0.00000   0.00000   0.01230   0.00000
  30 4   H  1S          0.00020   0.14404   0.14283  -0.24634  -0.06088
  31        2S         -0.00042   0.00561   0.08856  -0.15373  -0.01790
  32        3PX         0.00006  -0.00880   0.00700   0.00905   0.00250
  33        3PY        -0.00004   0.00456   0.00302  -0.00548   0.01692
  34        3PZ        -0.00011   0.01523   0.00914  -0.00324  -0.00395
                           6         7         8         9        10
                           V         V         V         V         V
     Eigenvalues --     0.01628   0.08839   0.08891   0.11803   0.19037
   1 1   N  1S          0.09284  -0.00045   0.00000   0.05172   0.00000
   2        2S         -0.16738   0.00064   0.00000  -0.06729   0.00000
   3        2PX         0.00088  -0.24656   0.00000  -0.00216   0.00000
   4        2PY         0.15396   0.00240   0.00000  -0.23035   0.00000
   5        2PZ         0.00000   0.00000  -0.24632   0.00000  -0.32449
   6        3S         -0.85216   0.00498   0.00000  -0.62474   0.00000
   7        3PX         0.00219  -0.37486   0.00000  -0.00301   0.00000
   8        3PY         0.12302   0.00363   0.00000  -0.37110   0.00000
   9        3PZ         0.00000   0.00000  -0.37652   0.00000  -1.00171
  10        4S          1.52111  -0.00482   0.00000   0.12002   0.00000
  11        4PX         0.00192   1.23308   0.00000   0.01544   0.00000
  12        4PY        -0.35902  -0.01375   0.00000   1.20449   0.00000
  13        4PZ         0.00000   0.00000   1.23233   0.00000  -0.83563
  14        5XX         0.03073   0.00766   0.00000   0.01903   0.00000
  15        5YY         0.02110  -0.00042   0.00000   0.02840   0.00000
  16        5ZZ         0.03066  -0.00785   0.00000   0.01880   0.00000
  17        5XY        -0.00013   0.01308   0.00000   0.00006   0.00000
  18        5XZ         0.00000   0.00000  -0.00898   0.00000   0.02455
  19        5YZ         0.00000   0.00000   0.01332   0.00000   0.00030
  20 2   H  1S          0.04305  -0.00510  -0.00903   0.02483   0.16467
  21        2S         -0.08384  -0.06182  -0.10426   0.24946   1.71657
  22        3PX         0.00988   0.00520   0.00292   0.00143   0.00594
  23        3PY        -0.00361  -0.00145  -0.00238   0.00216  -0.00559
  24        3PZ         0.01691   0.00296   0.00852   0.00227  -0.00617
  25 3   H  1S          0.04375   0.00991   0.00000   0.02582   0.00000
  26        2S         -0.07857   0.12125   0.00000   0.25600   0.00000
  27        3PX        -0.01950   0.01052   0.00000  -0.00264   0.00000
  28        3PY        -0.00319   0.00267   0.00000   0.00220   0.00000
  29        3PZ         0.00000   0.00000   0.00352   0.00000  -0.01701
  30 4   H  1S          0.04305  -0.00510   0.00903   0.02483  -0.16467
  31        2S         -0.08384  -0.06182   0.10426   0.24946  -1.71657
  32        3PX         0.00988   0.00520  -0.00292   0.00143  -0.00594
  33        3PY        -0.00361  -0.00145   0.00238   0.00216   0.00559
  34        3PZ        -0.01691  -0.00296   0.00852  -0.00227  -0.00617
                          11        12        13        14        15
                           V         V         V         V         V
     Eigenvalues --     0.19250   0.24107   0.82803   0.82841   0.87718
   1 1   N  1S          0.00208  -0.10208  -0.00006   0.00000   0.01898
   2        2S         -0.00249   0.11965   0.00417   0.00000   0.12876
   3        2PX         0.32446   0.00681  -0.91759   0.00000  -0.00594
   4        2PY         0.00035  -0.17131   0.00538   0.00000  -1.00290
   5        2PZ         0.00000   0.00000   0.00000  -0.91710   0.00000
   6        3S         -0.03521   1.88227  -0.00264   0.00000  -0.80408
   7        3PX         1.01376   0.02390   1.85014   0.00000   0.00326
   8        3PY         0.00136  -0.61802  -0.01617   0.00000   1.60976
   9        3PZ         0.00000   0.00000   0.00000   1.83725   0.00000
  10        4S         -0.05410   2.65511   0.01096   0.00000  -0.54680
  11        4PX         0.85054   0.02427  -0.46065   0.00000  -0.00974
  12        4PY        -0.00538  -0.43793   0.00012   0.00000  -0.53399
  13        4PZ         0.00000   0.00000   0.00000  -0.47251   0.00000
  14        5XX         0.02192  -0.04063  -0.00475   0.00000   0.00262
  15        5YY        -0.00012   0.00001   0.00128   0.00000  -0.02049
  16        5ZZ        -0.02006  -0.04068   0.00609   0.00000   0.00110
  17        5XY        -0.00088   0.00060  -0.02028   0.00000   0.00008
  18        5XZ         0.00000   0.00000   0.00000   0.00539   0.00000
  19        5YZ         0.00000   0.00000   0.00000  -0.01984   0.00000
  20 2   H  1S         -0.09089  -0.13551  -0.08835  -0.15744   0.03879
  21        2S         -0.96461  -1.85770  -0.32733  -0.53387   0.51972
  22        3PX         0.01341  -0.00255   0.05103   0.04219  -0.01944
  23        3PY         0.00330  -0.00467  -0.01938  -0.03341   0.02584
  24        3PZ        -0.00596  -0.00433   0.04179   0.09751  -0.03439
  25 3   H  1S          0.19204  -0.13059   0.17810   0.00000   0.04199
  26        2S          2.03354  -1.77841   0.63676   0.00000   0.49783
  27        3PX         0.00272   0.00526   0.12399   0.00000   0.03824
  28        3PY        -0.00650  -0.00524   0.03610   0.00000   0.02504
  29        3PZ         0.00000   0.00000   0.00000   0.02686   0.00000
  30 4   H  1S         -0.09089  -0.13551  -0.08835   0.15744   0.03879
  31        2S         -0.96461  -1.85770  -0.32733   0.53387   0.51972
  32        3PX         0.01341  -0.00255   0.05103  -0.04219  -0.01944
  33        3PY         0.00330  -0.00467  -0.01938   0.03341   0.02584
  34        3PZ         0.00596   0.00433  -0.04179   0.09751   0.03439
                          16        17        18        19        20
                           V         V         V         V         V
     Eigenvalues --     0.91242   0.91688   1.03932   1.11129   1.41545
   1 1   N  1S          0.00000  -0.00093   0.05200  -0.06578   0.00031
   2        2S          0.00000   0.00178  -0.50226  -1.60836   0.00583
   3        2PX         0.00000  -0.29187  -0.00446  -0.00211   0.00526
   4        2PY         0.00000  -0.00162   0.06782  -0.05488  -0.00103
   5        2PZ         0.29561   0.00000   0.00000   0.00000   0.00000
   6        3S          0.00000  -0.01210   1.46933   3.96485  -0.01571
   7        3PX         0.00000   0.29497   0.00344   0.01012   0.16994
   8        3PY         0.00000   0.00409  -0.13335  -0.23816  -0.00161
   9        3PZ        -0.30365   0.00000   0.00000   0.00000   0.00000
  10        4S          0.00000  -0.03214   1.67786  -0.16741  -0.00237
  11        4PX         0.00000   0.78294   0.01287  -0.00274  -0.06106
  12        4PY         0.00000  -0.00469  -0.46702  -0.22103   0.00218
  13        4PZ        -0.77449   0.00000   0.00000   0.00000   0.00000
  14        5XX         0.00000  -0.24313   0.11695  -0.35946  -0.30338
  15        5YY         0.00000   0.00511  -0.22415  -0.10774  -0.01745
  16        5ZZ         0.00000   0.23479   0.12016  -0.35875   0.32359
  17        5XY         0.00000  -0.14754  -0.00936   0.00696   0.56958
  18        5XZ        -0.27272   0.00000   0.00000   0.00000   0.00000
  19        5YZ         0.15146   0.00000   0.00000   0.00000   0.00000
  20 2   H  1S         -0.79217   0.44678   0.73516  -0.19604  -0.04948
  21        2S          1.65580  -0.92774  -1.58646  -0.74165   0.02426
  22        3PX        -0.07202  -0.04255   0.04747   0.00131  -0.15420
  23        3PY         0.04473  -0.02524   0.01332  -0.05958   0.15244
  24        3PZ        -0.04209   0.07173   0.08452   0.00389   0.14692
  25 3   H  1S          0.00000  -0.92826   0.71162  -0.18811   0.10284
  26        2S          0.00000   1.93242  -1.54104  -0.74081  -0.03536
  27        3PX         0.00000   0.08565  -0.09476  -0.00449   0.08810
  28        3PY         0.00000   0.04989   0.01680  -0.06195  -0.29517
  29        3PZ         0.08221   0.00000   0.00000   0.00000   0.00000
  30 4   H  1S          0.79217   0.44678   0.73516  -0.19604  -0.04948
  31        2S         -1.65580  -0.92774  -1.58646  -0.74165   0.02426
  32        3PX         0.07202  -0.04255   0.04747   0.00131  -0.15420
  33        3PY        -0.04473  -0.02524   0.01332  -0.05958   0.15244
  34        3PZ        -0.04209  -0.07173  -0.08452  -0.00389  -0.14692
                          21        22        23        24        25
                           V         V         V         V         V
     Eigenvalues --     1.41927   1.86593   2.04956   2.20007   2.20812
   1 1   N  1S          0.00000  -0.05737   0.00000  -0.00034   0.00000
   2        2S          0.00000  -0.55549   0.00000  -0.00364   0.00000
   3        2PX         0.00000  -0.00026   0.00000  -0.18310   0.00000
   4        2PY         0.00000   0.04440   0.00000   0.00263   0.00000
   5        2PZ         0.00445   0.00000   0.00803   0.00000  -0.18181
   6        3S          0.00000   1.59322   0.00000   0.01203   0.00000
   7        3PX         0.00000  -0.00448   0.00000   0.81696   0.00000
   8        3PY         0.00000  -0.60362   0.00000  -0.01337   0.00000
   9        3PZ         0.16949   0.00000  -0.03451   0.00000   0.80214
  10        4S          0.00000  -0.02273   0.00000   0.00335   0.00000
  11        4PX         0.00000   0.00256   0.00000  -0.24840   0.00000
  12        4PY         0.00000   0.06951   0.00000   0.00247   0.00000
  13        4PZ        -0.05972   0.00000   0.00996   0.00000  -0.24895
  14        5XX         0.00000   0.28057   0.00000  -0.37191   0.00000
  15        5YY         0.00000  -0.90025   0.00000  -0.00109   0.00000
  16        5ZZ         0.00000   0.27509   0.00000   0.37162   0.00000
  17        5XY         0.00000  -0.01808   0.00000  -0.15863   0.00000
  18        5XZ         0.37256   0.00000  -0.02222   0.00000   0.42236
  19        5YZ         0.56575   0.00000   0.01368   0.00000  -0.16135
  20 2   H  1S         -0.08705  -0.44011   0.02608  -0.31328  -0.53209
  21        2S          0.03241  -0.18778  -0.00650   0.09768   0.18446
  22        3PX         0.14556  -0.00125   0.50564  -0.40308   0.00869
  23        3PY         0.25644   0.23838   0.00526  -0.17999  -0.32004
  24        3PZ         0.00995  -0.01681  -0.28111  -0.00544  -0.42660
  25 3   H  1S          0.00000  -0.44213   0.00000   0.62059   0.00000
  26        2S          0.00000  -0.18290   0.00000  -0.20736   0.00000
  27        3PX         0.00000   0.01955   0.00000  -0.41011   0.00000
  28        3PY         0.00000   0.24174   0.00000   0.37575   0.00000
  29        3PZ        -0.23938   0.00000   0.59584   0.00000  -0.37681
  30 4   H  1S          0.08705  -0.44011  -0.02608  -0.31328   0.53209
  31        2S         -0.03241  -0.18778   0.00650   0.09768  -0.18446
  32        3PX        -0.14556  -0.00125  -0.50564  -0.40308  -0.00869
  33        3PY        -0.25644   0.23838  -0.00526  -0.17999   0.32004
  34        3PZ         0.00995   0.01681  -0.28111   0.00544  -0.42660
                          26        27        28        29        30
                           V         V         V         V         V
     Eigenvalues --     2.38924   2.39657   2.69837   2.92938   2.93671
   1 1   N  1S          0.00000  -0.00006   0.00317   0.00000  -0.00060
   2        2S          0.00000  -0.00098  -0.07782   0.00000   0.00916
   3        2PX         0.00000   0.20618  -0.00548   0.00000  -0.03000
   4        2PY         0.00000  -0.00261  -0.03300   0.00000  -0.00610
   5        2PZ         0.20460   0.00000   0.00000  -0.03807   0.00000
   6        3S          0.00000   0.00305   0.32467   0.00000   0.01474
   7        3PX         0.00000   0.00887  -0.00568   0.00000  -0.44539
   8        3PY         0.00000  -0.00639  -0.59284   0.00000  -0.00250
   9        3PZ         0.00304   0.00000   0.00000  -0.44744   0.00000
  10        4S          0.00000   0.00150   0.30635   0.00000   0.01675
  11        4PX         0.00000   0.18540  -0.00124   0.00000  -0.01099
  12        4PY         0.00000  -0.00131   0.05525   0.00000  -0.00231
  13        4PZ         0.18410   0.00000   0.00000  -0.01184   0.00000
  14        5XX         0.00000   0.35059  -0.27479   0.00000  -0.57485
  15        5YY         0.00000  -0.00412   0.68310   0.00000  -0.00809
  16        5ZZ         0.00000  -0.34682  -0.28357   0.00000   0.59304
  17        5XY         0.00000   0.60134  -0.00007   0.00000   0.60024
  18        5XZ        -0.39053   0.00000   0.00000   0.67412   0.00000
  19        5YZ         0.61060   0.00000   0.00000   0.58870   0.00000
  20 2   H  1S          0.35183   0.20068   0.02373   0.03243   0.01954
  21        2S         -0.41459  -0.24193  -0.27026   0.22645   0.11091
  22        3PX         0.15635  -0.18496   0.13531  -0.42779   0.54413
  23        3PY        -0.51580  -0.28990   0.58006  -0.31007  -0.18858
  24        3PZ         0.01398   0.17185   0.22608   0.04634  -0.41307
  25 3   H  1S          0.00000  -0.40156   0.02813   0.00000  -0.03531
  26        2S          0.00000   0.47933  -0.28105   0.00000  -0.27035
  27        3PX         0.00000   0.11380  -0.25878   0.00000  -0.20057
  28        3PY         0.00000   0.60246   0.56755   0.00000   0.36874
  29        3PZ        -0.28363   0.00000   0.00000   0.78512   0.00000
  30 4   H  1S         -0.35183   0.20068   0.02373  -0.03243   0.01954
  31        2S          0.41459  -0.24193  -0.27026  -0.22645   0.11091
  32        3PX        -0.15635  -0.18496   0.13531   0.42779   0.54413
  33        3PY         0.51580  -0.28990   0.58006   0.31007  -0.18858
  34        3PZ         0.01398  -0.17185  -0.22608   0.04634   0.41307
                          31        32        33        34
                           V         V         V         V
     Eigenvalues --     3.22918   3.37591   3.38120   3.95704
   1 1   N  1S         -0.22310   0.00258   0.00000  -0.42409
   2        2S          0.67466  -0.00899   0.00000   0.90910
   3        2PX         0.00455   0.80870   0.00000   0.00312
   4        2PY        -0.31854  -0.00878   0.00000   0.28453
   5        2PZ         0.00000   0.00000   0.80344   0.00000
   6        3S          2.40471  -0.01449   0.00000   2.43346
   7        3PX         0.01571   0.95784   0.00000   0.00124
   8        3PY        -0.42833  -0.01402   0.00000   0.05046
   9        3PZ         0.00000   0.00000   0.94608   0.00000
  10        4S          0.49520   0.00343   0.00000  -0.21847
  11        4PX         0.00120  -0.02864   0.00000   0.00021
  12        4PY        -0.12278   0.00084   0.00000  -0.12595
  13        4PZ         0.00000   0.00000  -0.03155   0.00000
  14        5XX        -0.11112  -0.91384   0.00000  -1.81433
  15        5YY        -0.84421   0.02703   0.00000  -1.29163
  16        5ZZ        -0.13442   0.90855   0.00000  -1.78829
  17        5XY        -0.02732  -0.72335   0.00000   0.00952
  18        5XZ         0.00000   0.00000   1.05772   0.00000
  19        5YZ         0.00000   0.00000  -0.73639   0.00000
  20 2   H  1S         -0.33924  -0.49771  -0.86644   0.43515
  21        2S         -0.81085  -0.29776  -0.50948  -0.25199
  22        3PX         0.33553   0.28964   0.48009  -0.24148
  23        3PY        -0.23835  -0.19146  -0.34655   0.21319
  24        3PZ         0.60040   0.47369   0.83433  -0.42624
  25 3   H  1S         -0.32978   0.99900   0.00000   0.44174
  26        2S         -0.79382   0.59688   0.00000  -0.24940
  27        3PX        -0.67853   1.12174   0.00000   0.49916
  28        3PY        -0.23059   0.37399   0.00000   0.21002
  29        3PZ         0.00000   0.00000   0.02269   0.00000
  30 4   H  1S         -0.33924  -0.49771   0.86644   0.43515
  31        2S         -0.81085  -0.29776   0.50948  -0.25199
  32        3PX         0.33553   0.28964  -0.48009  -0.24148
  33        3PY        -0.23835  -0.19146   0.34655   0.21319
  34        3PZ        -0.60040  -0.47369   0.83433   0.42624
     Density Matrix:
                           1         2         3         4         5
   1 1   N  1S          2.06052
   2        2S         -0.12045   0.40167
   3        2PX        -0.00026   0.00074   0.46235
   4        2PY        -0.03454   0.08645   0.00255   0.65034
   5        2PZ        -0.00000   0.00000  -0.00000   0.00000   0.46335
   6        3S         -0.19447   0.43098   0.00088   0.16909   0.00000
   7        3PX        -0.00029   0.00080   0.22341   0.00295  -0.00000
   8        3PY        -0.03071   0.08035   0.00338   0.46605   0.00000
   9        3PZ        -0.00000   0.00000  -0.00000   0.00000   0.22471
  10        4S         -0.00626   0.01115  -0.00092  -0.03803  -0.00000
  11        4PX        -0.00022   0.00051   0.02270   0.00172  -0.00000
  12        4PY        -0.01652   0.03831   0.00207   0.17309   0.00000
  13        4PZ        -0.00000   0.00000  -0.00000   0.00000   0.02314
  14        5XX        -0.01450  -0.00361  -0.01175   0.00990   0.00000
  15        5YY        -0.00794  -0.01892   0.00017  -0.02539   0.00000
  16        5ZZ        -0.01442  -0.00379   0.01163   0.00974  -0.00000
  17        5XY         0.00008  -0.00019  -0.02402  -0.00003  -0.00000
  18        5XZ         0.00000   0.00000   0.00000  -0.00000   0.01339
  19        5YZ         0.00000  -0.00000  -0.00000  -0.00000  -0.02436
  20 2   H  1S         -0.05029   0.10362   0.13639  -0.09658   0.23714
  21        2S         -0.00079  -0.00074   0.08488  -0.02227   0.14799
  22        3PX         0.00340  -0.00673   0.00677   0.00433  -0.00871
  23        3PY        -0.00400   0.00876   0.00316   0.01818   0.00528
  24        3PZ         0.00589  -0.01169  -0.00872   0.00734  -0.00312
  25 3   H  1S         -0.05059   0.10425  -0.27462  -0.09221   0.00000
  26        2S         -0.00107  -0.00015  -0.16926  -0.02004   0.00000
  27        3PX        -0.00687   0.01365  -0.00851  -0.00805   0.00000
  28        3PY        -0.00388   0.00854  -0.00568   0.01841   0.00000
  29        3PZ         0.00000  -0.00000   0.00000   0.00000   0.01184
  30 4   H  1S         -0.05029   0.10362   0.13639  -0.09658  -0.23714
  31        2S         -0.00079  -0.00074   0.08488  -0.02227  -0.14799
  32        3PX         0.00340  -0.00673   0.00677   0.00433   0.00871
  33        3PY        -0.00400   0.00876   0.00316   0.01818  -0.00528
  34        3PZ        -0.00589   0.01169   0.00872  -0.00734  -0.00312
                           6         7         8         9        10
   6        3S          0.47368
   7        3PX         0.00110   0.10796
   8        3PY         0.14045   0.00287   0.33485
   9        3PZ         0.00000  -0.00000   0.00000   0.10898
  10        4S          0.00719  -0.00054  -0.02649  -0.00000   0.00290
  11        4PX         0.00073   0.01097   0.00132  -0.00000  -0.00013
  12        4PY         0.06111   0.00146   0.12477   0.00000  -0.00948
  13        4PZ         0.00000  -0.00000   0.00000   0.01122  -0.00000
  14        5XX        -0.00209  -0.00565   0.00683   0.00000  -0.00074
  15        5YY        -0.02243   0.00001  -0.01893   0.00000   0.00086
  16        5ZZ        -0.00231   0.00564   0.00679  -0.00000  -0.00077
  17        5XY        -0.00020  -0.01161  -0.00011  -0.00000   0.00004
  18        5XZ         0.00000   0.00000  -0.00000   0.00650   0.00000
  19        5YZ        -0.00000  -0.00000  -0.00000  -0.01181   0.00000
  20 2   H  1S          0.09742   0.06571  -0.06326   0.11501   0.01029
  21        2S         -0.00346   0.04095  -0.01557   0.07177   0.00125
  22        3PX        -0.00657   0.00328   0.00278  -0.00422  -0.00057
  23        3PY         0.01140   0.00158   0.01334   0.00256  -0.00080
  24        3PZ        -0.01143  -0.00420   0.00463  -0.00151  -0.00094
  25 3   H  1S          0.09878  -0.13287  -0.06149   0.00000   0.01074
  26        2S         -0.00247  -0.08184  -0.01480   0.00000   0.00157
  27        3PX         0.01341  -0.00413  -0.00510   0.00000   0.00110
  28        3PY         0.01120  -0.00269   0.01346   0.00000  -0.00081
  29        3PZ        -0.00000   0.00000   0.00000   0.00574  -0.00000
  30 4   H  1S          0.09742   0.06571  -0.06326  -0.11501   0.01029
  31        2S         -0.00346   0.04095  -0.01557  -0.07177   0.00125
  32        3PX        -0.00657   0.00328   0.00278   0.00422  -0.00057
  33        3PY         0.01140   0.00158   0.01334  -0.00256  -0.00080
  34        3PZ         0.01143   0.00420  -0.00463  -0.00151   0.00094
                          11        12        13        14        15
  11        4PX         0.00112
  12        4PY         0.00054   0.04668
  13        4PZ         0.00000   0.00000   0.00116
  14        5XX        -0.00056   0.00243   0.00000   0.00063
  15        5YY        -0.00006  -0.00735  -0.00000  -0.00009   0.00171
  16        5ZZ         0.00059   0.00245  -0.00000   0.00003  -0.00007
  17        5XY        -0.00118  -0.00009  -0.00000   0.00061  -0.00001
  18        5XZ         0.00000  -0.00000   0.00067   0.00000   0.00000
  19        5YZ        -0.00000  -0.00000  -0.00122  -0.00000  -0.00000
  20 2   H  1S          0.00654  -0.02070   0.01184  -0.00626  -0.00064
  21        2S          0.00411  -0.00559   0.00739  -0.00252   0.00084
  22        3PX         0.00034   0.00088  -0.00044  -0.00003   0.00012
  23        3PY         0.00020   0.00510   0.00026   0.00013  -0.00095
  24        3PZ        -0.00042   0.00143  -0.00016   0.00048   0.00020
  25 3   H  1S         -0.01363  -0.02076  -0.00000   0.00428  -0.00106
  26        2S         -0.00836  -0.00574   0.00000   0.00399   0.00059
  27        3PX        -0.00043  -0.00159  -0.00000  -0.00007  -0.00026
  28        3PY        -0.00023   0.00512   0.00000   0.00036  -0.00096
  29        3PZ         0.00000   0.00000   0.00059   0.00000   0.00000
  30 4   H  1S          0.00654  -0.02070  -0.01184  -0.00626  -0.00064
  31        2S          0.00411  -0.00559  -0.00739  -0.00252   0.00084
  32        3PX         0.00034   0.00088   0.00044  -0.00003   0.00012
  33        3PY         0.00020   0.00510  -0.00026   0.00013  -0.00095
  34        3PZ         0.00042  -0.00143  -0.00016  -0.00048  -0.00020
                          16        17        18        19        20
  16        5ZZ         0.00062
  17        5XY        -0.00060   0.00125
  18        5XZ        -0.00000  -0.00000   0.00039
  19        5YZ         0.00000   0.00000  -0.00070   0.00128
  20 2   H  1S          0.00062  -0.00715   0.00685  -0.01247   0.21107
  21        2S          0.00178  -0.00441   0.00428  -0.00778   0.10483
  22        3PX         0.00032  -0.00035  -0.00025   0.00046  -0.00530
  23        3PY         0.00028  -0.00016   0.00015  -0.00028   0.00282
  24        3PZ         0.00004   0.00046  -0.00009   0.00016  -0.00908
  25 3   H  1S         -0.00962   0.01420  -0.00000  -0.00000  -0.03241
  26        2S         -0.00457   0.00879  -0.00000  -0.00000  -0.04626
  27        3PX        -0.00050   0.00043   0.00000  -0.00000   0.00311
  28        3PY         0.00006   0.00030  -0.00000  -0.00000  -0.00260
  29        3PZ        -0.00000  -0.00000   0.00034  -0.00062   0.00606
  30 4   H  1S          0.00062  -0.00715  -0.00685   0.01247  -0.03166
  31        2S          0.00178  -0.00441  -0.00428   0.00778  -0.04665
  32        3PX         0.00032  -0.00035   0.00025  -0.00046   0.00362
  33        3PY         0.00028  -0.00016  -0.00015   0.00028  -0.00259
  34        3PZ        -0.00004  -0.00046  -0.00009   0.00016   0.00588
                          21        22        23        24        25
  21        2S          0.06366
  22        3PX        -0.00173   0.00043
  23        3PY         0.00167  -0.00005   0.00069
  24        3PZ        -0.00293   0.00022  -0.00010   0.00068
  25 3   H  1S         -0.04659  -0.00682  -0.00250   0.00034   0.21090
  26        2S         -0.03039  -0.00266  -0.00165   0.00289   0.10401
  27        3PX        -0.00120  -0.00046  -0.00004  -0.00041   0.01061
  28        3PY        -0.00165  -0.00008   0.00058   0.00012   0.00264
  29        3PZ         0.00378  -0.00022   0.00013  -0.00008  -0.00000
  30 4   H  1S         -0.04665   0.00362  -0.00259  -0.00588  -0.03241
  31        2S         -0.03088   0.00383  -0.00171  -0.00093  -0.04659
  32        3PX         0.00383   0.00010   0.00015   0.00010  -0.00682
  33        3PY        -0.00171   0.00015   0.00057  -0.00002  -0.00250
  34        3PZ         0.00093  -0.00010   0.00002  -0.00064  -0.00034
                          26        27        28        29        30
  26        2S          0.06255
  27        3PX         0.00345   0.00082
  28        3PY         0.00158   0.00011   0.00069
  29        3PZ        -0.00000  -0.00000   0.00000   0.00030
  30 4   H  1S         -0.04626   0.00311  -0.00260  -0.00606   0.21107
  31        2S         -0.03039  -0.00120  -0.00165  -0.00378   0.10483
  32        3PX        -0.00266  -0.00046  -0.00008   0.00022  -0.00530
  33        3PY        -0.00165  -0.00004   0.00058  -0.00013   0.00282
  34        3PZ        -0.00289   0.00041  -0.00012  -0.00008   0.00908
                          31        32        33        34
  31        2S          0.06366
  32        3PX        -0.00173   0.00043
  33        3PY         0.00167  -0.00005   0.00069
  34        3PZ         0.00293  -0.00022   0.00010   0.00068
    Full Mulliken population analysis:
                           1         2         3         4         5
   1 1   N  1S          2.06052
   2        2S         -0.02677   0.40167
   3        2PX         0.00000   0.00000   0.46235
   4        2PY         0.00000   0.00000  -0.00000   0.65034
   5        2PZ         0.00000   0.00000   0.00000   0.00000   0.46335
   6        3S         -0.03342   0.33423   0.00000   0.00000   0.00000
   7        3PX         0.00000   0.00000   0.11602  -0.00000   0.00000
   8        3PY         0.00000   0.00000  -0.00000   0.24202   0.00000
   9        3PZ         0.00000   0.00000   0.00000   0.00000   0.11669
  10        4S         -0.00045   0.00457   0.00000   0.00000   0.00000
  11        4PX         0.00000   0.00000   0.00384  -0.00000   0.00000
  12        4PY         0.00000   0.00000  -0.00000   0.02925   0.00000
  13        4PZ         0.00000   0.00000   0.00000   0.00000   0.00391
  14        5XX        -0.00073  -0.00229   0.00000   0.00000   0.00000
  15        5YY        -0.00040  -0.01203   0.00000   0.00000   0.00000
  16        5ZZ        -0.00073  -0.00241   0.00000   0.00000   0.00000
  17        5XY        -0.00000   0.00000   0.00000   0.00000   0.00000
  18        5XZ        -0.00000  -0.00000   0.00000   0.00000   0.00000
  19        5YZ         0.00000   0.00000   0.00000   0.00000   0.00000
  20 2   H  1S         -0.00162   0.02593   0.02047   0.01029   0.06113
  21        2S         -0.00006  -0.00031   0.00784   0.00146   0.02346
  22        3PX        -0.00008   0.00100   0.00017   0.00036   0.00174
  23        3PY        -0.00007   0.00092   0.00026   0.00150   0.00075
  24        3PZ        -0.00023   0.00297   0.00175   0.00104   0.00063
  25 3   H  1S         -0.00163   0.02608   0.08245   0.00931   0.00000
  26        2S         -0.00008  -0.00006   0.03126   0.00124   0.00000
  27        3PX        -0.00032   0.00404   0.00277   0.00126   0.00000
  28        3PY        -0.00006   0.00085   0.00089   0.00163   0.00000
  29        3PZ        -0.00000   0.00000   0.00000   0.00000   0.00167
  30 4   H  1S         -0.00162   0.02593   0.02047   0.01029   0.06113
  31        2S         -0.00006  -0.00031   0.00784   0.00146   0.02346
  32        3PX        -0.00008   0.00100   0.00017   0.00036   0.00174
  33        3PY        -0.00007   0.00092   0.00026   0.00150   0.00075
  34        3PZ        -0.00023   0.00297   0.00175   0.00104   0.00063
                           6         7         8         9        10
   6        3S          0.47368
   7        3PX         0.00000   0.10796
   8        3PY         0.00000  -0.00000   0.33485
   9        3PZ         0.00000   0.00000   0.00000   0.10898
  10        4S          0.00557   0.00000   0.00000   0.00000   0.00290
  11        4PX         0.00000   0.00718  -0.00000   0.00000   0.00000
  12        4PY         0.00000  -0.00000   0.08157   0.00000   0.00000
  13        4PZ         0.00000   0.00000   0.00000   0.00734   0.00000
  14        5XX        -0.00140   0.00000   0.00000   0.00000  -0.00030
  15        5YY        -0.01503   0.00000   0.00000   0.00000   0.00035
  16        5ZZ        -0.00155   0.00000   0.00000   0.00000  -0.00031
  17        5XY         0.00000   0.00000   0.00000   0.00000  -0.00000
  18        5XZ        -0.00000   0.00000   0.00000   0.00000  -0.00000
  19        5YZ         0.00000   0.00000   0.00000   0.00000   0.00000
  20 2   H  1S          0.03895   0.01719   0.01174   0.05165   0.00324
  21        2S         -0.00241   0.01048   0.00283   0.03152   0.00090
  22        3PX         0.00066   0.00054   0.00014   0.00052   0.00001
  23        3PY         0.00082   0.00008   0.00268   0.00022  -0.00001
  24        3PZ         0.00198   0.00052   0.00040  -0.00004   0.00004
  25 3   H  1S          0.03949   0.06951   0.01081   0.00000   0.00338
  26        2S         -0.00172   0.04187   0.00255   0.00000   0.00113
  27        3PX         0.00270   0.00021   0.00049   0.00000   0.00006
  28        3PY         0.00076   0.00026   0.00275   0.00000  -0.00001
  29        3PZ         0.00000   0.00000   0.00000   0.00136   0.00000
  30 4   H  1S          0.03895   0.01719   0.01174   0.05165   0.00324
  31        2S         -0.00241   0.01048   0.00283   0.03152   0.00090
  32        3PX         0.00066   0.00054   0.00014   0.00052   0.00001
  33        3PY         0.00082   0.00008   0.00268   0.00022  -0.00001
  34        3PZ         0.00198   0.00052   0.00040  -0.00004   0.00004
                          11        12        13        14        15
  11        4PX         0.00112
  12        4PY        -0.00000   0.04668
  13        4PZ        -0.00000   0.00000   0.00116
  14        5XX         0.00000   0.00000   0.00000   0.00063
  15        5YY         0.00000   0.00000   0.00000  -0.00003   0.00171
  16        5ZZ         0.00000   0.00000   0.00000   0.00001  -0.00002
  17        5XY         0.00000   0.00000   0.00000  -0.00000   0.00000
  18        5XZ         0.00000   0.00000   0.00000  -0.00000  -0.00000
  19        5YZ         0.00000   0.00000   0.00000  -0.00000  -0.00000
  20 2   H  1S          0.00088   0.00198   0.00274  -0.00138  -0.00012
  21        2S          0.00099   0.00095   0.00305  -0.00099   0.00032
  22        3PX         0.00003   0.00001   0.00001  -0.00000  -0.00001
  23        3PY         0.00000   0.00054   0.00000   0.00001   0.00005
  24        3PZ         0.00001   0.00002  -0.00001  -0.00011  -0.00003
  25 3   H  1S          0.00367   0.00188  -0.00000   0.00199  -0.00019
  26        2S          0.00402   0.00093   0.00000   0.00176   0.00022
  27        3PX        -0.00003   0.00002   0.00000  -0.00002  -0.00005
  28        3PY         0.00000   0.00054   0.00000   0.00009   0.00005
  29        3PZ        -0.00000   0.00000   0.00007  -0.00000  -0.00000
  30 4   H  1S          0.00088   0.00198   0.00274  -0.00138  -0.00012
  31        2S          0.00099   0.00095   0.00305  -0.00099   0.00032
  32        3PX         0.00003   0.00001   0.00001  -0.00000  -0.00001
  33        3PY         0.00000   0.00054   0.00000   0.00001   0.00005
  34        3PZ         0.00001   0.00002  -0.00001  -0.00011  -0.00003
                          16        17        18        19        20
  16        5ZZ         0.00062
  17        5XY         0.00000   0.00125
  18        5XZ         0.00000  -0.00000   0.00039
  19        5YZ         0.00000  -0.00000   0.00000   0.00128
  20 2   H  1S          0.00024   0.00072   0.00167   0.00215   0.21107
  21        2S          0.00075   0.00009   0.00022   0.00028   0.06901
  22        3PX        -0.00009   0.00001  -0.00001   0.00007   0.00000
  23        3PY         0.00006  -0.00002   0.00002  -0.00005   0.00000
  24        3PZ        -0.00001   0.00007   0.00002   0.00002   0.00000
  25 3   H  1S         -0.00134   0.00270   0.00000   0.00000  -0.00087
  26        2S         -0.00171   0.00035   0.00000   0.00000  -0.00802
  27        3PX        -0.00007   0.00010  -0.00000   0.00000   0.00008
  28        3PY         0.00000  -0.00006   0.00000  -0.00000   0.00000
  29        3PZ        -0.00000   0.00000  -0.00011   0.00007   0.00009
  30 4   H  1S          0.00024   0.00072   0.00167   0.00215  -0.00089
  31        2S          0.00075   0.00009   0.00022   0.00028  -0.00823
  32        3PX        -0.00009   0.00001  -0.00001   0.00007  -0.00000
  33        3PY         0.00006  -0.00002   0.00002  -0.00005  -0.00000
  34        3PZ        -0.00001   0.00007   0.00002   0.00002   0.00019
                          21        22        23        24        25
  21        2S          0.06366
  22        3PX         0.00000   0.00043
  23        3PY         0.00000   0.00000   0.00069
  24        3PZ         0.00000  -0.00000   0.00000   0.00068
  25 3   H  1S         -0.00807   0.00019  -0.00000  -0.00001   0.21090
  26        2S         -0.01338   0.00026  -0.00000  -0.00016   0.06847
  27        3PX        -0.00012   0.00001  -0.00000   0.00001   0.00000
  28        3PY         0.00000  -0.00000   0.00000   0.00000   0.00000
  29        3PZ         0.00021   0.00000   0.00000   0.00000   0.00000
  30 4   H  1S         -0.00823  -0.00000  -0.00000   0.00019  -0.00087
  31        2S         -0.01375  -0.00000  -0.00000   0.00011  -0.00807
  32        3PX        -0.00000   0.00000  -0.00000  -0.00000   0.00019
  33        3PY        -0.00000  -0.00000   0.00000  -0.00000  -0.00000
  34        3PZ         0.00011   0.00000   0.00000   0.00003  -0.00001
                          26        27        28        29        30
  26        2S          0.06255
  27        3PX         0.00000   0.00082
  28        3PY         0.00000  -0.00000   0.00069
  29        3PZ         0.00000   0.00000   0.00000   0.00030
  30 4   H  1S         -0.00802   0.00008   0.00000   0.00009   0.21107
  31        2S         -0.01338  -0.00012   0.00000   0.00021   0.06901
  32        3PX         0.00026   0.00001  -0.00000   0.00000   0.00000
  33        3PY        -0.00000  -0.00000   0.00000   0.00000   0.00000
  34        3PZ        -0.00016   0.00001   0.00000   0.00000   0.00000
                          31        32        33        34
  31        2S          0.06366
  32        3PX         0.00000   0.00043
  33        3PY         0.00000   0.00000   0.00069
  34        3PZ         0.00000   0.00000   0.00000   0.00068
     Gross orbital populations:
                           1
   1 1   N  1S          1.99181
   2        2S          0.78887
   3        2PX         0.76054
   4        2PY         0.96434
   5        2PZ         0.76105
   6        3S          0.88329
   7        3PX         0.40059
   8        3PY         0.71064
   9        3PZ         0.40214
  10        4S          0.02525
  11        4PX         0.02362
  12        4PY         0.16787
  13        4PZ         0.02404
  14        5XX        -0.00523
  15        5YY        -0.02499
  16        5ZZ        -0.00559
  17        5XY         0.00609
  18        5XZ         0.00410
  19        5YZ         0.00631
  20 2   H  1S          0.51028
  21        2S          0.17082
  22        3PX         0.00597
  23        3PY         0.00847
  24        3PZ         0.00989
  25 3   H  1S          0.50995
  26        2S          0.17015
  27        3PX         0.01196
  28        3PY         0.00839
  29        3PZ         0.00398
  30 4   H  1S          0.51028
  31        2S          0.17082
  32        3PX         0.00597
  33        3PY         0.00847
  34        3PZ         0.00989
          Condensed to atoms (all electrons):
              1          2          3          4
     1  N    6.830736   0.351100   0.351788   0.351100
     2  H    0.351100   0.414555  -0.029772  -0.030461
     3  H    0.351788  -0.029772   0.412187  -0.029772
     4  H    0.351100  -0.030461  -0.029772   0.414555
 Mulliken atomic charges:
              1
     1  N   -0.884724
     2  H    0.294578
     3  H    0.295568
     4  H    0.294578
 Sum of Mulliken atomic charges =  -0.00000
 Mulliken charges with hydrogens summed into heavy atoms:
              1
     1  N   -0.000000
 Sum of Mulliken charges with hydrogens summed into heavy atoms =  -0.00000
 Electronic spatial extent (au):  <R**2>=             27.7011
 Charge=             -0.0000 electrons
 Dipole moment (field-independent basis, Debye):
    X=             -0.0091    Y=             -1.6554    Z=             -0.0000  Tot=              1.6554
 Quadrupole moment (field-independent basis, Debye-Ang):
   XX=             -6.2148   YY=             -9.9830   ZZ=             -6.2748
   XY=             -0.0507   XZ=             -0.0000   YZ=              0.0000
 Traceless Quadrupole moment (field-independent basis, Debye-Ang):
   XX=              1.2760   YY=             -2.4921   ZZ=              1.2161
   XY=             -0.0507   XZ=             -0.0000   YZ=              0.0000
 Octapole moment (field-independent basis, Debye-Ang**2):
  XXX=             -1.0422  YYY=             -1.6043  ZZZ=             -0.0000  XYY=              0.0084
  XXY=             -0.8480  XXZ=              0.0000  XZZ=              1.0120  YZZ=             -0.8618
  YYZ=             -0.0000  XYZ=              0.0000
 Hexadecapole moment (field-independent basis, Debye-Ang**3):
 XXXX=            -10.8522 YYYY=            -15.3629 ZZZZ=            -10.9019 XXXY=              0.3047
 XXXZ=              0.0000 YYYX=             -0.0170 YYYZ=             -0.0000 ZZZX=             -0.0000
 ZZZY=             -0.0000 XXYY=             -4.5183 XXZZ=             -3.6264 YYZZ=             -4.4995
 XXYZ=              0.0000 YYXZ=             -0.0000 ZZXY=             -0.3444
 N-N= 1.173189874293D+01 E-N=-1.551006464824D+02  KE= 5.590461325701D+01
 Symmetry A'   KE= 5.328795019729D+01
 Symmetry A"   KE= 2.616663059725D+00
 Orbital energies and kinetic energies (alpha):
                                 1                 2
   1         O               -14.328149         21.960281
   2         O                -0.849307          1.830986
   3         O                -0.468233          1.307217
   4         O                -0.465693          1.308332
   5         O                -0.264099          1.545491
   6         V                 0.016282          0.585933
   7         V                 0.088388          0.418352
   8         V                 0.088914          0.418178
   9         V                 0.118031          0.494396
  10         V                 0.190369          0.936009
  11         V                 0.192501          0.935141
  12         V                 0.241072          1.018839
  13         V                 0.828033          2.568168
  14         V                 0.828407          2.565667
  15         V                 0.877176          2.844663
  16         V                 0.912418          2.183436
  17         V                 0.916884          2.185816
  18         V                 1.039324          2.502254
  19         V                 1.111294          2.057893
  20         V                 1.415446          2.419134
  21         V                 1.419270          2.422753
  22         V                 1.865930          2.922220
  23         V                 2.049564          2.883810
  24         V                 2.200066          3.212419
  25         V                 2.208124          3.217453
  26         V                 2.389240          3.473009
  27         V                 2.396571          3.479076
  28         V                 2.698373          3.601793
  29         V                 2.929380          3.915873
  30         V                 2.936707          3.924453
  31         V                 3.229179          5.789314
  32         V                 3.375913          5.276325
  33         V                 3.381202          5.273016
  34         V                 3.957041          8.734214
 Total kinetic energy from orbitals= 5.590461325701D+01
 No NMR shielding tensors so no spin-rotation constants.
 Leave Link  601 at Sun Sep 15 20:57:52 2024, MaxMem=   13107200 cpu:       0.2
 (Enter /programs/64bit/g09/g09-gfortran/bin/l701.exe)
 Compute integral first derivatives.
 ... and contract with generalized density number  0.
 Leave Link  701 at Sun Sep 15 20:57:52 2024, MaxMem=   13107200 cpu:       0.2
 (Enter /programs/64bit/g09/g09-gfortran/bin/l702.exe)
 L702 exits ... SP integral derivatives will be done elsewhere.
 Leave Link  702 at Sun Sep 15 20:57:52 2024, MaxMem=   13107200 cpu:       0.0
 (Enter /programs/64bit/g09/g09-gfortran/bin/l703.exe)
 Compute integral first derivatives, UseDBF=F ICtDFT=           0.
 Integral derivatives from FoFDir, PRISM(SPDF).
 Calling FoFJK, ICntrl=      2127 FMM=F ISym2X=1 I1Cent= 0 IOpClX= 0 NMat=1 NMatS=1 NMatT=0.
 FoFCou: FMM=F IPFlag=           0 FMFlag=      100000 FMFlg1=         800
         NFxFlg=           0 DoJE=F BraDBF=F KetDBF=F FulRan=T
         Omega=  0.000000  0.000000  1.000000  0.000000  0.000000 ICntrl=    2127 IOpCl=  0
         NMat0=    1 NMatS0=    1 NMatT0=    0 NMatD0=    1 NMtDS0=    0 NMtDT0=    0
         I1Cent=           0 NGrid=           0.
 Petite list used in FoFCou.
 Leave Link  703 at Sun Sep 15 20:57:53 2024, MaxMem=   13107200 cpu:       1.1
 (Enter /programs/64bit/g09/g09-gfortran/bin/l716.exe)
 Dipole        =-3.59467873D-03-6.51265783D-01 0.00000000D+00
 ***** Axes restored to original set *****
 -------------------------------------------------------------------
 Center     Atomic                   Forces (Hartrees/Bohr)
 Number     Number              X              Y              Z
 -------------------------------------------------------------------
      1        7           0.001653335    0.005650844    0.002870132
      2        1           0.002106543    0.001297784   -0.013159335
      3        1          -0.012225186    0.002487562    0.005977970
      4        1           0.008465309   -0.009436190    0.004311232
 -------------------------------------------------------------------
 Cartesian Forces:  Max     0.013159335 RMS     0.007028882
 Leave Link  716 at Sun Sep 15 20:57:53 2024, MaxMem=   13107200 cpu:       0.0
 (Enter /programs/64bit/g09/g09-gfortran/bin/l103.exe)

 GradGradGradGradGradGradGradGradGradGradGradGradGradGradGradGradGradGrad
 Berny optimization.
 Internal  Forces:  Max     0.013532018 RMS     0.008909580
 Search for a local minimum.
 Step number   1 out of a maximum of   20
 All quantities printed in internal units (Hartrees-Bohrs-Radians)
 RMS Force = .89096D-02 SwitMx=.10000D-02 MixMth= 1
 Mixed Optimization -- RFO/linear search
 Second derivative matrix not updated -- first step.
 The second derivative matrix:
                          R1        R2        R3        A1        A2
           R1           0.42780
           R2           0.00000   0.42780
           R3           0.00000   0.00000   0.42780
           A1           0.00000   0.00000   0.00000   0.16000
           A2           0.00000   0.00000   0.00000   0.00000   0.16000
           A3           0.00000   0.00000   0.00000   0.00000   0.00000
           D1           0.00000   0.00000   0.00000   0.00000   0.00000
                          A3        D1
           A3           0.16000
           D1           0.00000   0.00632
     Eigenvalues ---    0.05317   0.16000   0.16000   0.42780   0.42780
     Eigenvalues ---    0.427801000.00000
 RFO step:  Lambda=-1.63310770D-03 EMin= 5.31747074D-02
 Linear search not attempted -- first point.
 Iteration  1 RMS(Cart)=  0.03314234 RMS(Int)=  0.00091253
 Iteration  2 RMS(Cart)=  0.00047416 RMS(Int)=  0.00065314
 Iteration  3 RMS(Cart)=  0.00000079 RMS(Int)=  0.00065314
 ClnCor:  largest displacement from symmetrization is 9.57D-04 for atom     4.
 Variable       Old X    -DE/DX   Delta X   Delta X   Delta X     New X
                                 (Linear)    (Quad)   (Total)
    R1        1.94642  -0.01316   0.00000  -0.03064  -0.03035   1.91607
    R2        1.94642  -0.01353   0.00000  -0.03151  -0.03151   1.91491
    R3        1.94642  -0.01316   0.00000  -0.03064  -0.03035   1.91607
    A1        1.91986  -0.00104   0.00000  -0.03053  -0.03221   1.88765
    A2        1.90131  -0.00061   0.00000  -0.01607  -0.01679   1.88452
    A3        1.91986  -0.00332   0.00000  -0.03257  -0.03221   1.88765
    D1        2.10561  -0.00370   0.00000  -0.06759  -0.06680   2.03881
         Item               Value     Threshold  Converged?
 Maximum Force            0.013532     0.000450     NO 
 RMS     Force            0.008910     0.000300     NO 
 Maximum Displacement     0.038391     0.001800     NO 
 RMS     Displacement     0.033148     0.001200     NO 
 Predicted change in Energy=-8.143228D-04
 GradGradGradGradGradGradGradGradGradGradGradGradGradGradGradGradGradGrad

 Leave Link  103 at Sun Sep 15 20:57:53 2024, MaxMem=   13107200 cpu:       0.0
 (Enter /programs/64bit/g09/g09-gfortran/bin/l202.exe)
                          Input orientation:                          
 ---------------------------------------------------------------------
 Center     Atomic      Atomic             Coordinates (Angstroms)
 Number     Number       Type             X           Y           Z
 ---------------------------------------------------------------------
      1          7           0       -0.009027   -0.011520   -0.003793
      2          1           0        0.009110    0.008587    1.009787
      3          1           0        0.947568    0.012465   -0.337228
      4          1           0       -0.476754    0.828754   -0.325113
 ---------------------------------------------------------------------
                    Distance matrix (angstroms):
                    1          2          3          4
     1  N    0.000000
     2  H    1.013941   0.000000
     3  H    1.013325   1.641696   0.000000
     4  H    1.013941   1.640334   1.641696   0.000000
 Stoichiometry    H3N
 Framework group  CS[SG(HN),X(H2)]
 Deg. of freedom     4
 Full point group                 CS      NOp   2
 Largest Abelian subgroup         CS      NOp   2
 Largest concise Abelian subgroup CS      NOp   2
                         Standard orientation:                         
 ---------------------------------------------------------------------
 Center     Atomic      Atomic             Coordinates (Angstroms)
 Number     Number       Type             X           Y           Z
 ---------------------------------------------------------------------
      1          7           0       -0.000000    0.108070   -0.000000
      2          1           0        0.474046   -0.253431    0.820167
      3          1           0       -0.948092   -0.249628    0.000000
      4          1           0        0.474046   -0.253431   -0.820167
 ---------------------------------------------------------------------
 Rotational constants (GHZ):    301.0804031    300.5419844    186.1599036
 Leave Link  202 at Sun Sep 15 20:57:53 2024, MaxMem=   13107200 cpu:       0.0
 (Enter /programs/64bit/g09/g09-gfortran/bin/l301.exe)
 Standard basis: 6-31+G(d,p) (6D, 7F)
 Ernie: Thresh=  0.10000D-02 Tol=  0.10000D-05 Strict=F.
 There are    23 symmetry adapted basis functions of A'  symmetry.
 There are    11 symmetry adapted basis functions of A"  symmetry.
 Integral buffers will be    131072 words long.
 Raffenetti 2 integral format.
 Two-electron integral symmetry is turned on.
    34 basis functions,    53 primitive gaussians,    34 cartesian basis functions
     5 alpha electrons        5 beta electrons
       nuclear repulsion energy        11.9294232940 Hartrees.
 IExCor=  402 DFT=T Ex+Corr=B3LYP ExCW=0 ScaHFX=  0.200000
 ScaDFX=  0.800000  0.720000  1.000000  0.810000 ScalE2=  1.000000  1.000000
 IRadAn=      0 IRanWt=     -1 IRanGd=            0 ICorTp=0
 NAtoms=    4 NActive=    4 NUniq=    3 SFac= 1.33D+00 NAtFMM=   80 NAOKFM=F Big=F
 Leave Link  301 at Sun Sep 15 20:57:53 2024, MaxMem=   13107200 cpu:       0.1
 (Enter /programs/64bit/g09/g09-gfortran/bin/l302.exe)
 NPDir=0 NMtPBC=     1 NCelOv=     1 NCel=       1 NClECP=     1 NCelD=      1
         NCelK=      1 NCelE2=     1 NClLst=     1 CellRange=     0.0.
 One-electron integrals computed using PRISM.
 One-electron integral symmetry used in STVInt
 NBasis=    34 RedAO= T  NBF=    23    11
 NBsUse=    34 1.00D-06 NBFU=    23    11
 Precomputing XC quadrature grid using
 IXCGrd= 2 IRadAn=           0 IRanWt=          -1 IRanGd=           0 AccXCQ= 1.00D-10.
 NRdTot=     252 NPtTot=       31966 NUsed=       33795 NTot=       33827
 NSgBfM=    34    34    34    34    34 NAtAll=     4     4.
 Leave Link  302 at Sun Sep 15 20:57:54 2024, MaxMem=   13107200 cpu:       0.2
 (Enter /programs/64bit/g09/g09-gfortran/bin/l303.exe)
 DipDrv:  MaxL=1.
 Leave Link  303 at Sun Sep 15 20:57:54 2024, MaxMem=   13107200 cpu:       0.0
 (Enter /programs/64bit/g09/g09-gfortran/bin/l401.exe)
 Initial guess read from the read-write file.
 B after Tr=     0.000000    0.000000    0.000000
         Rot=    1.000000    0.000000    0.000000    0.000000 Ang=   0.00 deg.
 Guess basis will be translated and rotated to current coordinates.
 Initial guess orbital symmetries:
       Occupied  (A') (A') (A') (A") (A')
       Virtual   (A') (A') (A") (A') (A") (A') (A') (A') (A") (A')
                 (A") (A') (A') (A') (A') (A") (A') (A") (A') (A")
                 (A") (A') (A') (A") (A') (A') (A') (A") (A')
 The electronic state of the initial guess is 1-A'.
 Generating alternative initial guess.
 Harris functional with IExCor=  402 diagonalized for initial guess.
 ExpMin= 6.39D-02 ExpMax= 4.17D+03 ExpMxC= 6.27D+02 IAcc=2 IRadAn=         0 AccDes= 0.00D+00
 HarFok:  IExCor=  402 AccDes= 0.00D+00 IRadAn=         0 IDoV= 1
 ScaDFX=  1.000000  1.000000  1.000000  1.000000
 FoFCou: FMM=F IPFlag=           0 FMFlag=      100000 FMFlg1=           0
         NFxFlg=           0 DoJE=T BraDBF=F KetDBF=T FulRan=T
         Omega=  0.000000  0.000000  1.000000  0.000000  0.000000 ICntrl=     500 IOpCl=  0
         NMat0=    1 NMatS0=    1 NMatT0=    0 NMatD0=    1 NMtDS0=    0 NMtDT0=    0
         I1Cent=           4 NGrid=           0.
 Petite list used in FoFCou.
 Harris En= -56.6083133952817    
 Leave Link  401 at Sun Sep 15 20:57:55 2024, MaxMem=   13107200 cpu:       0.7
 (Enter /programs/64bit/g09/g09-gfortran/bin/l502.exe)
 Closed shell SCF:
 Requested convergence on RMS density matrix=1.00D-08 within 128 cycles.
 Requested convergence on MAX density matrix=1.00D-06.
 Requested convergence on             energy=1.00D-06.
 No special actions if energy rises.
 Using DIIS extrapolation, IDIIS=  1040.
 Integral symmetry usage will be decided dynamically.
        33746 words used for storage of precomputed grid.
 Keep R1 ints in memory in canonical form, NReq=1092090.
 IEnd=       55872 IEndB=       55872 NGot=    13107200 MDV=    12891821
 LenX=    12891821 LenY=    12890224
 Symmetry not used in FoFDir.
 MinBra= 0 MaxBra= 2 Meth= 1.
 IRaf=       0 NMat=   1 IRICut=       1 DoRegI=T DoRafI=F ISym2E= 0 JSym2E=0.
 Integral accuracy reduced to 1.0D-05 until final iterations.

 Cycle   1  Pass 0  IDiag  1:
 E= -56.5667058308801    
 DIIS: error= 2.41D-03 at cycle   1 NSaved=   1.
 NSaved= 1 IEnMin= 1 EnMin= -56.5667058308801     IErMin= 1 ErrMin= 2.41D-03
 ErrMax= 2.41D-03 EMaxC= 1.00D-01 BMatC= 2.74D-04 BMatP= 2.74D-04
 IDIUse=3 WtCom= 9.76D-01 WtEn= 2.41D-02
 Coeff-Com:  0.100D+01
 Coeff-En:   0.100D+01
 Coeff:      0.100D+01
 Gap=     0.288 Goal=   None    Shift=    0.000
 GapD=    0.288 DampG=1.000 DampE=1.000 DampFc=1.0000 IDamp=-1.
 RMSDP=5.19D-04 MaxDP=4.84D-03              OVMax= 7.95D-03

 Cycle   2  Pass 0  IDiag  1:
 E= -56.5669018911462     Delta-E=       -0.000196060266 Rises=F Damp=F
 DIIS: error= 1.64D-03 at cycle   2 NSaved=   2.
 NSaved= 2 IEnMin= 2 EnMin= -56.5669018911462     IErMin= 2 ErrMin= 1.64D-03
 ErrMax= 1.64D-03 EMaxC= 1.00D-01 BMatC= 8.52D-05 BMatP= 2.74D-04
 IDIUse=3 WtCom= 9.84D-01 WtEn= 1.64D-02
 Coeff-Com:  0.299D+00 0.701D+00
 Coeff-En:   0.000D+00 0.100D+01
 Coeff:      0.294D+00 0.706D+00
 Gap=     0.283 Goal=   None    Shift=    0.000
 RMSDP=2.88D-04 MaxDP=4.47D-03 DE=-1.96D-04 OVMax= 5.36D-03

 Cycle   3  Pass 0  IDiag  1:
 E= -56.5669353314173     Delta-E=       -0.000033440271 Rises=F Damp=F
 DIIS: error= 1.30D-03 at cycle   3 NSaved=   3.
 NSaved= 3 IEnMin= 3 EnMin= -56.5669353314173     IErMin= 3 ErrMin= 1.30D-03
 ErrMax= 1.30D-03 EMaxC= 1.00D-01 BMatC= 4.89D-05 BMatP= 8.52D-05
 IDIUse=3 WtCom= 9.87D-01 WtEn= 1.30D-02
 Coeff-Com:  0.108D-01 0.430D+00 0.560D+00
 Coeff-En:   0.000D+00 0.374D+00 0.626D+00
 Coeff:      0.107D-01 0.429D+00 0.561D+00
 Gap=     0.285 Goal=   None    Shift=    0.000
 RMSDP=1.30D-04 MaxDP=1.80D-03 DE=-3.34D-05 OVMax= 2.28D-03

 Cycle   4  Pass 0  IDiag  1:
 E= -56.5669764569768     Delta-E=       -0.000041125560 Rises=F Damp=F
 DIIS: error= 6.50D-05 at cycle   4 NSaved=   4.
 NSaved= 4 IEnMin= 4 EnMin= -56.5669764569768     IErMin= 4 ErrMin= 6.50D-05
 ErrMax= 6.50D-05 EMaxC= 1.00D-01 BMatC= 1.09D-07 BMatP= 4.89D-05
 IDIUse=1 WtCom= 1.00D+00 WtEn= 0.00D+00
 Coeff-Com: -0.543D-02 0.927D-01 0.133D+00 0.780D+00
 Coeff:     -0.543D-02 0.927D-01 0.133D+00 0.780D+00
 Gap=     0.285 Goal=   None    Shift=    0.000
 RMSDP=8.73D-06 MaxDP=8.82D-05 DE=-4.11D-05 OVMax= 1.07D-04

 Initial convergence to 1.0D-05 achieved.  Increase integral accuracy.
 Cycle   5  Pass 1  IDiag  1:
 E= -56.5669741270668     Delta-E=        0.000002329910 Rises=F Damp=F
 DIIS: error= 6.69D-06 at cycle   1 NSaved=   1.
 NSaved= 1 IEnMin= 1 EnMin= -56.5669741270668     IErMin= 1 ErrMin= 6.69D-06
 ErrMax= 6.69D-06 EMaxC= 1.00D-01 BMatC= 1.16D-09 BMatP= 1.16D-09
 IDIUse=1 WtCom= 1.00D+00 WtEn= 0.00D+00
 Coeff-Com:  0.100D+01
 Coeff:      0.100D+01
 Gap=     0.285 Goal=   None    Shift=    0.000
 RMSDP=8.73D-06 MaxDP=8.82D-05 DE= 2.33D-06 OVMax= 2.37D-05

 Cycle   6  Pass 1  IDiag  1:
 E= -56.5669741266442     Delta-E=        0.000000000423 Rises=F Damp=F
 DIIS: error= 8.56D-06 at cycle   2 NSaved=   2.
 NSaved= 2 IEnMin= 1 EnMin= -56.5669741270668     IErMin= 1 ErrMin= 6.69D-06
 ErrMax= 8.56D-06 EMaxC= 1.00D-01 BMatC= 1.85D-09 BMatP= 1.16D-09
 IDIUse=1 WtCom= 1.00D+00 WtEn= 0.00D+00
 Coeff-Com:  0.562D+00 0.438D+00
 Coeff:      0.562D+00 0.438D+00
 Gap=     0.285 Goal=   None    Shift=    0.000
 RMSDP=8.53D-07 MaxDP=1.28D-05 DE= 4.23D-10 OVMax= 1.58D-05

 Cycle   7  Pass 1  IDiag  1:
 E= -56.5669741282101     Delta-E=       -0.000000001566 Rises=F Damp=F
 DIIS: error= 6.98D-07 at cycle   3 NSaved=   3.
 NSaved= 3 IEnMin= 3 EnMin= -56.5669741282101     IErMin= 3 ErrMin= 6.98D-07
 ErrMax= 6.98D-07 EMaxC= 1.00D-01 BMatC= 2.31D-11 BMatP= 1.16D-09
 IDIUse=1 WtCom= 1.00D+00 WtEn= 0.00D+00
 Coeff-Com:  0.767D-01 0.125D+00 0.798D+00
 Coeff:      0.767D-01 0.125D+00 0.798D+00
 Gap=     0.285 Goal=   None    Shift=    0.000
 RMSDP=1.04D-07 MaxDP=1.06D-06 DE=-1.57D-09 OVMax= 1.41D-06

 Cycle   8  Pass 1  IDiag  1:
 E= -56.5669741282291     Delta-E=       -0.000000000019 Rises=F Damp=F
 DIIS: error= 1.36D-07 at cycle   4 NSaved=   4.
 NSaved= 4 IEnMin= 4 EnMin= -56.5669741282291     IErMin= 4 ErrMin= 1.36D-07
 ErrMax= 1.36D-07 EMaxC= 1.00D-01 BMatC= 4.31D-13 BMatP= 2.31D-11
 IDIUse=1 WtCom= 1.00D+00 WtEn= 0.00D+00
[...]
  18         V                 1.059664          2.521724
  19         V                 1.124097          2.104748
  20         V                 1.411719          2.421819
  21         V                 1.411766          2.421862
  22         V                 1.854009          2.911838
  23         V                 2.067655          2.907833
  24         V                 2.239899          3.211565
  25         V                 2.239954          3.211630
  26         V                 2.391412          3.520959
  27         V                 2.391547          3.521115
  28         V                 2.757329          3.671403
  29         V                 2.957529          3.945662
  30         V                 2.957567          3.945714
  31         V                 3.266021          5.873503
  32         V                 3.405628          5.370707
  33         V                 3.405629          5.371024
  34         V                 3.963665          8.778164
 Total kinetic energy from orbitals= 5.598333121735D+01
  Exact polarizability:  10.226   0.001  12.363  -0.000   0.000  10.226
 Approx polarizability:  12.432  -0.000  13.070  -0.000   0.000  12.431
 No NMR shielding tensors so no spin-rotation constants.
 Leave Link  601 at Sun Sep 15 20:58:19 2024, MaxMem=   13107200 cpu:       0.2
 (Enter /programs/64bit/g09/g09-gfortran/bin/l701.exe)
 Compute integral second derivatives.
 ... and contract with generalized density number  0.
 Leave Link  701 at Sun Sep 15 20:58:19 2024, MaxMem=   13107200 cpu:       0.3
 (Enter /programs/64bit/g09/g09-gfortran/bin/l702.exe)
 L702 exits ... SP integral derivatives will be done elsewhere.
 Leave Link  702 at Sun Sep 15 20:58:19 2024, MaxMem=   13107200 cpu:       0.0
 (Enter /programs/64bit/g09/g09-gfortran/bin/l703.exe)
 Compute integral second derivatives, UseDBF=F ICtDFT=           0.
 Integral derivatives from FoFDir, PRISM(SPDF).
 Calling FoFJK, ICntrl=    100127 FMM=F ISym2X=1 I1Cent= 0 IOpClX= 0 NMat=1 NMatS=1 NMatT=0.
 FoFCou: FMM=F IPFlag=           0 FMFlag=      100000 FMFlg1=         800
         NFxFlg=           0 DoJE=F BraDBF=F KetDBF=F FulRan=T
         Omega=  0.000000  0.000000  1.000000  0.000000  0.000000 ICntrl=  100127 IOpCl=  0
         NMat0=    1 NMatS0=    1 NMatT0=    0 NMatD0=    1 NMtDS0=    0 NMtDT0=    0
         I1Cent=           0 NGrid=           0.
 Petite list used in FoFCou.
 Leave Link  703 at Sun Sep 15 20:58:23 2024, MaxMem=   13107200 cpu:       3.9
 (Enter /programs/64bit/g09/g09-gfortran/bin/l716.exe)
 Dipole        =-7.32708227D-05-6.93005893D-01-1.08203377D-15
 Polarizability= 1.02263961D+01 5.89826392D-04 1.23632500D+01
                -5.89971005D-09 2.04115943D-09 1.02261699D+01
 Full mass-weighted force constant matrix:
 Low frequencies ---  -54.7454  -40.7085  -22.5390    0.0007    0.0019    0.0021
 Low frequencies ---  995.8171 1673.0463 1673.2702
 Diagonal vibrational polarizability:
        0.2847073       6.5606014       0.2848057
 Harmonic frequencies (cm**-1), IR intensities (KM/Mole), Raman scattering
 activities (A**4/AMU), depolarization ratios for plane and unpolarized
 incident light, reduced masses (AMU), force constants (mDyne/A),
 and normal coordinates:
                     1                      2                      3
                    A'                     A"                     A'
 Frequencies --   995.8161              1673.0462              1673.2702
 Red. masses --     1.1841                 1.0685                 1.0685
 Frc consts  --     0.6918                 1.7621                 1.7626
 IR Inten    --   241.5389                28.7767                28.7711
  Atom  AN      X      Y      Z        X      Y      Z        X      Y      Z
     1   7     0.00   0.12   0.00     0.00  -0.00   0.07     0.07  -0.00  -0.00
     2   1    -0.10  -0.54  -0.17     0.39   0.21  -0.09    -0.54   0.12   0.39
     3   1     0.19  -0.54  -0.00     0.00  -0.00  -0.77     0.13  -0.24   0.00
     4   1    -0.10  -0.54   0.17    -0.39  -0.21  -0.09    -0.54   0.12  -0.39
                     4                      5                      6
                    A'                     A"                     A'
 Frequencies --  3486.8987              3630.1303              3630.5925
 Red. masses --     1.0241                 1.0913                 1.0913
 Frc consts  --     7.3363                 8.4732                 8.4756
 IR Inten    --     2.6039                 3.9852                 4.0005
  Atom  AN      X      Y      Z        X      Y      Z        X      Y      Z
     1   7     0.00  -0.04   0.00     0.00   0.00   0.08     0.08   0.00  -0.00
     2   1    -0.28   0.16  -0.48    -0.34   0.24  -0.57    -0.17   0.14  -0.34
     3   1     0.55   0.16  -0.00    -0.00  -0.00   0.02    -0.76  -0.28  -0.00
     4   1    -0.28   0.16   0.48     0.34  -0.24  -0.57    -0.17   0.14   0.34

 -------------------
 - Thermochemistry -
 -------------------
 Temperature   298.150 Kelvin.  Pressure   1.00000 Atm.
 Atom     1 has atomic number  7 and mass  14.00307
 Atom     2 has atomic number  1 and mass   1.00783
 Atom     3 has atomic number  1 and mass   1.00783
 Atom     4 has atomic number  1 and mass   1.00783
 Molecular mass:    17.02655 amu.
 Principal axes and moments of inertia in atomic units:
                           1         2         3
     Eigenvalues --     6.01866   6.01934   9.73682
           X            1.00000  -0.00000   0.00027
           Y           -0.00027   0.00000   1.00000
           Z            0.00000   1.00000  -0.00000
 This molecule is an asymmetric top.
 Rotational symmetry number  1.
 Rotational temperatures (Kelvin)     14.39089    14.38924     8.89549
 Rotational constants (GHZ):         299.85786   299.82356   185.35216
 Zero-point vibrational energy      90256.8 (Joules/Mol)
                                   21.57189 (Kcal/Mol)
 Vibrational temperatures:   1432.76  2407.14  2407.46  5016.86  5222.94
          (Kelvin)           5223.61
 
 Zero-point correction=                           0.034377 (Hartree/Particle)
 Thermal correction to Energy=                    0.037252
 Thermal correction to Enthalpy=                  0.038196
 Thermal correction to Gibbs Free Energy=         0.015305
 Sum of electronic and zero-point Energies=            -56.532607
 Sum of electronic and thermal Energies=               -56.529733
 Sum of electronic and thermal Enthalpies=             -56.528789
 Sum of electronic and thermal Free Energies=          -56.551680
 
                     E (Thermal)             CV                S
                      KCal/Mol        Cal/Mol-Kelvin    Cal/Mol-Kelvin
 Total                   23.376              6.424             48.178
 Electronic               0.000              0.000              0.000
 Translational            0.889              2.981             34.441
 Rotational               0.889              2.981             13.631
 Vibrational             21.598              0.463              0.106
                       Q            Log10(Q)             Ln(Q)
 Total Bot       0.912601D-07         -7.039719        -16.209552
 Total V=0       0.592331D+09          8.772564         20.199576
 Vib (Bot)       0.155438D-15        -15.808444        -36.400287
 Vib (V=0)       0.100888D+01          0.003840          0.008842
 Electronic      0.100000D+01          0.000000          0.000000
 Translational   0.276150D+07          6.441145         14.831285
 Rotational      0.212608D+03          2.327579          5.359450
 
                                                    NH3 with 6-31+g(d,p) basis se
 t
                                                             IR Spectrum
 
      3    3                                                              1                                                          
      6    4                                                              6                       9                                  
      3    8                                                              7                       9                                  
      0    7                                                              3                       6                                  
 
      X    X                                                              X                       X                                  
                                                                          X                       X                                  
                                                                          X                       X                                  
                                                                          X                       X                                  
                                                                          X                       X                                  
                                                                                                  X                                  
                                                                                                  X                                  
                                                                                                  X                                  
                                                                                                  X                                  
                                                                                                  X                                  
                                                                                                  X                                  
                                                                                                  X                                  
                                                                                                  X                                  
                                                                                                  X                                  
                                                                                                  X                                  
                                                                                                  X                                  
                                                                                                  X                                  
                                                                                                  X                                  
                                                                                                  X                                  
                                                                                                  X                                  
 
 ***** Axes restored to original set *****
 -------------------------------------------------------------------
 Center     Atomic                   Forces (Hartrees/Bohr)
 Number     Number              X              Y              Z
 -------------------------------------------------------------------
      1        7          -0.000148757   -0.000161266   -0.000044939
      2        1           0.000031878    0.000030309    0.000073454
      3        1           0.000117028    0.000046583   -0.000013973
      4        1          -0.000000149    0.000084373   -0.000014541
 -------------------------------------------------------------------
 Cartesian Forces:  Max     0.000161266 RMS     0.000082096
 Force constants in Cartesian coordinates: 
                1             2             3             4             5 
      1  0.561937D+00
      2 -0.181735D+00  0.351096D+00
      3 -0.736274D-01 -0.127594D+00  0.614830D+00
      4 -0.499754D-01  0.222002D-01 -0.214050D-01  0.492654D-01
      5  0.218356D-01 -0.239834D-01 -0.322706D-01 -0.177180D-01  0.285616D-01
      6  0.566918D-02  0.149852D-01 -0.435315D+00  0.432955D-03 -0.470816D-02
      7 -0.394187D+00  0.200020D-01  0.133009D+00  0.102362D-02 -0.315872D-02
      8 -0.243295D-01 -0.241326D-01  0.324369D-01 -0.743295D-03 -0.273936D-02
      9  0.105771D+00  0.163015D-01 -0.909958D-01  0.417774D-01  0.557272D-03
     10 -0.117774D+00  0.139532D+00 -0.379762D-01 -0.313650D-03 -0.958884D-03
     11  0.184229D+00 -0.302980D+00  0.127428D+00 -0.373888D-02 -0.183880D-02
     12 -0.378129D-01  0.963075D-01 -0.885196D-01 -0.208054D-01  0.364215D-01
                6             7             8             9            10 
      6  0.458909D+00
      7 -0.657760D-02  0.410077D+00
      8 -0.313717D-02 -0.876343D-02  0.285657D-01
      9 -0.120129D-01 -0.133024D+00 -0.157494D-01  0.981309D-01
     10  0.475461D-03 -0.169129D-01  0.338363D-01 -0.145250D-01  0.135001D+00
     11 -0.713987D-02 -0.807989D-02 -0.169368D-02 -0.110934D-02 -0.172410D+00
     12 -0.115815D-01  0.659253D-02 -0.135503D-01  0.487788D-02  0.520257D-01
               11            12 
     11  0.306512D+00
     12 -0.119179D+00  0.952232D-01
 Force constants in internal coordinates: 
                1             2             3             4             5 
      1  0.458457D+00
      2 -0.261408D-02  0.458606D+00
      3 -0.261387D-02 -0.261408D-02  0.458457D+00
      4  0.741876D-02  0.741537D-02 -0.847122D-02  0.558508D-01
      5  0.183633D-01 -0.303922D-02  0.208555D-01 -0.436184D-01  0.127187D+00
      6 -0.302772D-02  0.183531D-01  0.208601D-01 -0.436000D-01 -0.236203D-01
      7  0.169461D-01  0.169273D-01  0.122801D-01  0.193333D-01  0.384379D-02
                6             7 
      6  0.127164D+00
      7  0.383059D-02  0.269136D-01
 Leave Link  716 at Sun Sep 15 20:58:23 2024, MaxMem=   13107200 cpu:       0.1
 (Enter /programs/64bit/g09/g09-gfortran/bin/l103.exe)

 GradGradGradGradGradGradGradGradGradGradGradGradGradGradGradGradGradGrad
 Berny optimization.
 Internal  Forces:  Max     0.000115593 RMS     0.000068324
 Search for a local minimum.
 Step number   1 out of a maximum of    2
 All quantities printed in internal units (Hartrees-Bohrs-Radians)
 Second derivative matrix not updated -- analytic derivatives used.
 The second derivative matrix:
                          R1        R2        R3        A1        A2
           R1           0.45846
           R2          -0.00261   0.45861
           R3          -0.00261  -0.00261   0.45846
           A1           0.00742   0.00742  -0.00847   0.05585
           A2           0.01836  -0.00304   0.02086  -0.04362   0.12719
           A3          -0.00303   0.01835   0.02086  -0.04360  -0.02362
           D1           0.01695   0.01693   0.01228   0.01933   0.00384
                          A3        D1
           A3           0.12716
           D1           0.00383   0.02691
     Eigenvalues ---    0.03727   0.14358   0.14933   0.45725   0.46257
     Eigenvalues ---    0.462641000.00000
 Angle between quadratic step and forces=  49.87 degrees.
 Linear search not attempted -- first point.
 Iteration  1 RMS(Cart)=  0.00055030 RMS(Int)=  0.00000085
 Iteration  2 RMS(Cart)=  0.00000053 RMS(Int)=  0.00000063
 ClnCor:  largest displacement from symmetrization is 1.16D-07 for atom     4.
 Variable       Old X    -DE/DX   Delta X   Delta X   Delta X     New X
                                 (Linear)    (Quad)   (Total)
    R1        1.91918   0.00007   0.00000   0.00028   0.00028   1.91946
    R2        1.91908   0.00012   0.00000   0.00038   0.00038   1.91945
    R3        1.91918   0.00007   0.00000   0.00028   0.00028   1.91946
    A1        1.88770  -0.00002   0.00000  -0.00093  -0.00093   1.88677
    A2        1.88747  -0.00003   0.00000  -0.00073  -0.00073   1.88675
    A3        1.88770  -0.00006   0.00000  -0.00093  -0.00093   1.88677
    D1        2.04046  -0.00006   0.00000  -0.00198  -0.00197   2.03848
         Item               Value     Threshold  Converged?
 Maximum Force            0.000116     0.000450     YES
 RMS     Force            0.000068     0.000300     YES
 Maximum Displacement     0.000947     0.001800     YES
 RMS     Displacement     0.000551     0.001200     YES
 Predicted change in Energy=-1.478566D-07
 Optimization completed.
    -- Stationary point found.
                           ----------------------------
                           !   Optimized Parameters   !
                           ! (Angstroms and Degrees)  !
 --------------------------                            --------------------------
 ! Name  Definition              Value          Derivative Info.                !
 --------------------------------------------------------------------------------
 ! R1    R(1,2)                  1.0156         -DE/DX =    0.0001              !
 ! R2    R(1,3)                  1.0155         -DE/DX =    0.0001              !
 ! R3    R(1,4)                  1.0156         -DE/DX =    0.0001              !
 ! A1    A(2,1,3)              108.157          -DE/DX =    0.0                 !
 ! A2    A(2,1,4)              108.1443         -DE/DX =    0.0                 !
 ! A3    A(3,1,4)              108.157          -DE/DX =   -0.0001              !
 ! D1    D(2,1,4,3)            116.9097         -DE/DX =   -0.0001              !
 --------------------------------------------------------------------------------
 GradGradGradGradGradGradGradGradGradGradGradGradGradGradGradGradGradGrad

 Leave Link  103 at Sun Sep 15 20:58:23 2024, MaxMem=   13107200 cpu:       0.0
 (Enter /programs/64bit/g09/g09-gfortran/bin/l9999.exe)
 1\1\GINC-MOLMOD\Freq\RB3LYP\6-31+G(d,p)\H3N1\OSPITE\15-Sep-2024\0\\#P 
 Geom=AllCheck Guess=TCheck SCRF=Check GenChk RB3LYP/6-31+G(d,p) Freq\\
 NH3 with 6-31+g(d,p) basis set\\0,1\N,-0.0094387075,-0.0111794642,-0.0
 034332914\H,0.0092299101,0.0075279802,1.0118101918\H,0.9490990796,0.01
 20239366,-0.3380562678\H,-0.4779441488,0.8299066604,-0.3266895343\\Ver
 sion=EM64L-G09RevA.02\State=1-A'\HF=-56.5669845\RMSD=3.605e-10\RMSF=8.
 210e-05\ZeroPoint=0.034377\Thermal=0.0372517\Dipole=0.3265124,0.566629
 6,0.2292983\DipoleDeriv=-0.488753,-0.114871,-0.0464535,-0.114912,-0.62
 18749,-0.0806881,-0.0464787,-0.0807031,-0.4551412,0.220305,0.0497729,-
 0.0379084,0.0495672,0.2794547,-0.0638074,-0.0217374,-0.0355379,0.02215
 58,0.0268493,-0.0171222,0.0496178,-0.0435971,0.2786439,0.0690555,0.033
 3515,0.0594194,0.2164448,0.2415987,0.0822203,0.034744,0.1089419,0.0637
 762,0.07544,0.0348646,0.0568215,0.2165406\Polar=10.7010125,0.8234214,1
 1.6547331,0.3330843,0.5780131,10.4600703\PG=CS [SG(H1N1),X(H2)]\NImag=
 0\\0.56193730,-0.18173472,0.35109577,-0.07362743,-0.12759426,0.6148304
 3,-0.04997537,0.02220021,-0.02140498,0.04926540,0.02183564,-0.02398342
 ,-0.03227058,-0.01771804,0.02856157,0.00566918,0.01498521,-0.43531500,
 0.00043295,-0.00470816,0.45890944,-0.39418747,0.02000203,0.13300859,0.
 00102362,-0.00315872,-0.00657760,0.41007671,-0.02432954,-0.02413262,0.
 03243688,-0.00074329,-0.00273936,-0.00313717,-0.00876343,0.02856566,0.
 10577112,0.01630150,-0.09099584,0.04177743,0.00055727,-0.01201293,-0.1
 3302352,-0.01574943,0.09813089,-0.11777445,0.13953247,-0.03797617,-0.0
 0031365,-0.00095888,0.00047546,-0.01691286,0.03383627,-0.01452503,0.13
 500096,0.18422863,-0.30297974,0.12742796,-0.00373888,-0.00183880,-0.00
 713987,-0.00807989,-0.00169368,-0.00110934,-0.17240986,0.30651222,-0.0
 3781287,0.09630755,-0.08851959,-0.02080540,0.03642147,-0.01158152,0.00
 659253,-0.01355027,0.00487788,0.05202574,-0.11917875,0.09522323\\0.000
 14876,0.00016127,0.00004494,-0.00003188,-0.00003031,-0.00007345,-0.000
 11703,-0.00004658,0.00001397,0.00000015,-0.00008437,0.00001454\\\@


 Sometimes the fool who rushes in gets the job done.
                                    -- Al Bernstein
 Job cpu time:  0 days  0 hours  0 minutes 18.0 seconds.
 File lengths (MBytes):  RWF=      5 Int=      0 D2E=      0 Chk=      1 Scr=      1
 Normal termination of Gaussian 09 at Sun Sep 15 20:58:23 2024.
