 Entering Gaussian System, Link 0=/programs/64bit/g09/g09-gfortran/bin/g09
 Input=ch4_aug-cc-pVDZ.com
 Output=ch4_aug-cc-pVDZ.log
 Initial command:
 /programs/64bit/g09/g09-gfortran/bin/l1.exe /home/ospite/Desktop/MMfP/Project6/CH4/g09/MP2/Gau-19991.inp -scrdir=/home/ospite/Desktop/MMfP/Project6/CH4/g09/MP2/
 Entering Link 1 = /programs/64bit/g09/g09-gfortran/bin/l1.exe PID=     19992.
  
 Copyright (c) 1988,1990,1992,1993,1995,1998,2003,2009, Gaussian, Inc.
                  All Rights Reserved.
  
 This is part of the Gaussian(R) 09 program.  It is based on
 the Gaussian(R) 03 system (copyright 2003, Gaussian, Inc.),
 the Gaussian(R) 98 system (copyright 1998, Gaussian, Inc.),
 the Gaussian(R) 94 system (copyright 1995, Gaussian, Inc.),
 the Gaussian 92(TM) system (copyright 1992, Gaussian, Inc.),
 the Gaussian 90(TM) system (copyright 1990, Gaussian, Inc.),
 the Gaussian 88(TM) system (copyright 1988, Gaussian, Inc.),
 the Gaussian 86(TM) system (copyright 1986, Carnegie Mellon
 University), and the Gaussian 82(TM) system (copyright 1983,
 Carnegie Mellon University). Gaussian is a federally registered
 trademark of Gaussian, Inc.
  
 This software contains proprietary and confidential information,
 including trade secrets, belonging to Gaussian, Inc.
  
 This software is provided under written license and may be
 used, copied, transmitted, or stored only in accord with that
 written license.
  
 The following legend is applicable only to US Government
 contracts under FAR:
  
                    RESTRICTED RIGHTS LEGEND
  
 Use, reproduction and disclosure by the US Government is
 subject to restrictions as set forth in subparagraphs (a)
 and (c) of the Commercial Computer Software - Restricted
 Rights clause in FAR 52.227-19.
  
 Gaussian, Inc.
 340 Quinnipiac St., Bldg. 40, Wallingford CT 06492
  
  
 ---------------------------------------------------------------
 Warning -- This program may not be used in any manner that
 competes with the business of Gaussian, Inc. or will provide
 assistance to any competitor of Gaussian, Inc.  The licensee
 of this program is prohibited from giving any competitor of
 Gaussian, Inc. access to this program.  By using this program,
 the user acknowledges that Gaussian, Inc. is engaged in the
 business of creating and licensing software in the field of
 computational chemistry and represents and warrants to the
 licensee that it is not a competitor of Gaussian, Inc. and that
 it will not use this program in any manner prohibited above.
 ---------------------------------------------------------------
  

 Cite this work as:
 Gaussian 09, Revision A.02,
 M. J. Frisch, G. W. Trucks, H. B. Schlegel, G. E. Scuseria, 
 M. A. Robb, J. R. Cheeseman, G. Scalmani, V. Barone, B. Mennucci, 
 G. A. Petersson, H. Nakatsuji, M. Caricato, X. Li, H. P. Hratchian, 
 A. F. Izmaylov, J. Bloino, G. Zheng, J. L. Sonnenberg, M. Hada, 
 M. Ehara, K. Toyota, R. Fukuda, J. Hasegawa, M. Ishida, T. Nakajima, 
 Y. Honda, O. Kitao, H. Nakai, T. Vreven, J. A. Montgomery, Jr., 
 J. E. Peralta, F. Ogliaro, M. Bearpark, J. J. Heyd, E. Brothers, 
 K. N. Kudin, V. N. Staroverov, R. Kobayashi, J. Normand, 
 K. Raghavachari, A. Rendell, J. C. Burant, S. S. Iyengar, J. Tomasi, 
 M. Cossi, N. Rega, J. M. Millam, M. Klene, J. E. Knox, J. B. Cross, 
 V. Bakken, C. Adamo, J. Jaramillo, R. Gomperts, R. E. Stratmann, 
 O. Yazyev, A. J. Austin, R. Cammi, C. Pomelli, J. W. Ochterski, 
 R. L. Martin, K. Morokuma, V. G. Zakrzewski, G. A. Voth, 
 P. Salvador, J. J. Dannenberg, S. Dapprich, A. D. Daniels, 
 O. Farkas, J. B. Foresman, J. V. Ortiz, J. Cioslowski, 
 and D. J. Fox, Gaussian, Inc., Wallingford CT, 2009.
 
 ******************************************
 Gaussian 09:  EM64L-G09RevA.02 11-Jun-2009
                18-Aug-2024 
 ******************************************
 %mem=100MB
 --------------------------------------------------------------------
 #p mp2/aug-cc-pVDZ opt freq symmetry=(follow,pg=Td) pop=full gfinput
 --------------------------------------------------------------------
 1/18=20,19=15,38=1/1,3;
 2/9=110,12=2,17=6,18=5,19=2314885530818462804,40=1/2;
 3/5=16,7=10,11=9,16=1,24=10,25=1,30=1,71=1/1,2,3;
 4//1;
 5/5=2,38=5/2;
 8/6=4,10=1/1;
 9/15=2,16=-3/6;
 10/5=1/2;
 6/7=3/1;
 7/12=2/1,2,3,16;
 1/18=20,19=15/3(2);
 2/9=110,15=5,19=2314885530818462804/2;
 99//99;
 2/9=110,15=5,19=2314885530818462804/2;
 3/5=16,7=10,11=9,16=1,25=1,30=1,71=1/1,2,3;
 4/5=5,16=3/1;
 5/5=2,38=5/2;
 8/6=4,10=1/1;
 9/15=2,16=-3/6;
 10/5=1/2;
 7/12=2/1,2,3,16;
 1/18=20,19=15/3(-8);
 2/9=110,15=5,19=2314885530818462804/2;
 6/7=3/1;
 99//99;
 Leave Link    1 at Sun Aug 18 00:51:59 2024, MaxMem=   13107200 cpu:       0.1
 (Enter /programs/64bit/g09/g09-gfortran/bin/l101.exe)
 -------------------------------------------------------
 methane with imposed symmetry and aug-cc-pVDZ basis set
 -------------------------------------------------------
 Symbolic Z-matrix:
 Charge =  0 Multiplicity = 1
 C1
 H2                   1    d
 H3                   1    d        2    a
 H4                   1    d        2    a        3    t        0
 H5                   1    d        2    a        3    -t       0
       Variables:
  d                     1.09                     
  a                   109.471                    
  t                   120.                       
 
     3 tetrahedral angles replaced.
 NAtoms=      5 NQM=      5 NQMF=      0 NMic=      0 NMicF=      0 NTot=      5.
                    Isotopes and Nuclear Properties:
 (Nuclear quadrupole moments (NQMom) in fm**2, nuclear magnetic moments (NMagM)
  in nuclear magnetons)

  Atom         1           2           3           4           5
 IAtWgt=          12           1           1           1           1
 AtmWgt=  12.0000000   1.0078250   1.0078250   1.0078250   1.0078250
 NucSpn=           0           1           1           1           1
 AtZEff=   0.0000000   0.0000000   0.0000000   0.0000000   0.0000000
 NQMom=    0.0000000   0.0000000   0.0000000   0.0000000   0.0000000
 NMagM=    0.0000000   2.7928460   2.7928460   2.7928460   2.7928460
 Leave Link  101 at Sun Aug 18 00:51:59 2024, MaxMem=   13107200 cpu:       0.1
 (Enter /programs/64bit/g09/g09-gfortran/bin/l103.exe)

 GradGradGradGradGradGradGradGradGradGradGradGradGradGradGradGradGradGrad
 Berny optimization.
 Initialization pass.
                           ----------------------------
                           !    Initial Parameters    !
                           ! (Angstroms and Degrees)  !
 --------------------------                            --------------------------
 ! Name  Definition              Value          Derivative Info.                !
 --------------------------------------------------------------------------------
 ! R1    R(1,2)                  1.09           estimate D2E/DX2                !
 ! R2    R(1,3)                  1.09           estimate D2E/DX2                !
 ! R3    R(1,4)                  1.09           estimate D2E/DX2                !
 ! R4    R(1,5)                  1.09           estimate D2E/DX2                !
 ! A1    A(2,1,3)              109.4712         estimate D2E/DX2                !
 ! A2    A(2,1,4)              109.4712         estimate D2E/DX2                !
 ! A3    A(2,1,5)              109.4712         estimate D2E/DX2                !
 ! A4    A(3,1,4)              109.4712         estimate D2E/DX2                !
 ! A5    A(3,1,5)              109.4712         estimate D2E/DX2                !
 ! A6    A(4,1,5)              109.4712         estimate D2E/DX2                !
 ! D1    D(2,1,4,3)           -120.0            estimate D2E/DX2                !
 ! D2    D(2,1,5,3)            120.0            estimate D2E/DX2                !
 ! D3    D(2,1,5,4)           -120.0            estimate D2E/DX2                !
 ! D4    D(3,1,5,4)            120.0            estimate D2E/DX2                !
 --------------------------------------------------------------------------------
 Trust Radius=3.00D-01 FncErr=1.00D-07 GrdErr=1.00D-07
 Number of steps in this run=  24 maximum allowed number of steps= 100.
 GradGradGradGradGradGradGradGradGradGradGradGradGradGradGradGradGradGrad

 Leave Link  103 at Sun Aug 18 00:51:59 2024, MaxMem=   13107200 cpu:       0.0
 (Enter /programs/64bit/g09/g09-gfortran/bin/l202.exe)
                          Input orientation:                          
 ---------------------------------------------------------------------
 Center     Atomic      Atomic             Coordinates (Angstroms)
 Number     Number       Type             X           Y           Z
 ---------------------------------------------------------------------
      1          6           0        0.000000    0.000000    0.000000
      2          1           0        0.000000    0.000000    1.090000
      3          1           0        1.027662    0.000000   -0.363333
      4          1           0       -0.513831   -0.889981   -0.363333
      5          1           0       -0.513831    0.889981   -0.363333
 ---------------------------------------------------------------------
                    Distance matrix (angstroms):
                    1          2          3          4          5
     1  C    0.000000
     2  H    1.090000   0.000000
     3  H    1.090000   1.779963   0.000000
     4  H    1.090000   1.779963   1.779963   0.000000
     5  H    1.090000   1.779963   1.779963   1.779963   0.000000
 Symm:  InNGrp=TD   InAxis=0.
 Stoichiometry    CH4
 Framework group  TD[O(C),4C3(H)]
 Deg. of freedom     1
 Full point group                 TD      NOp  24
 Largest Abelian subgroup         D2      NOp   4
 Largest concise Abelian subgroup D2      NOp   4
                         Standard orientation:                         
 ---------------------------------------------------------------------
 Center     Atomic      Atomic             Coordinates (Angstroms)
 Number     Number       Type             X           Y           Z
 ---------------------------------------------------------------------
      1          6           0        0.000000    0.000000    0.000000
      2          1           0        0.629312    0.629312    0.629312
      3          1           0       -0.629312   -0.629312    0.629312
      4          1           0       -0.629312    0.629312   -0.629312
      5          1           0        0.629312   -0.629312   -0.629312
 ---------------------------------------------------------------------
 Rotational constants (GHZ):    158.2742720    158.2742720    158.2742720
 Leave Link  202 at Sun Aug 18 00:51:59 2024, MaxMem=   13107200 cpu:       0.0
 (Enter /programs/64bit/g09/g09-gfortran/bin/l301.exe)
 Standard basis: Aug-CC-pVDZ (5D, 7F)
 Ernie: Thresh=  0.10000D-02 Tol=  0.10000D-05 Strict=F.
 Ernie:  2 primitive shells out of 53 were deleted.
 AO basis set in the form of general basis input (Overlap normalization):
      1 0
 S   7 1.00       0.000000000000
      0.6665000000D+04  0.6935163173D-03
      0.1000000000D+04  0.5341502433D-02
      0.2280000000D+03  0.2713667141D-01
      0.6471000000D+02  0.1019923853D+00
      0.2106000000D+02  0.2755086365D+00
      0.7495000000D+01  0.4510864331D+00
      0.2797000000D+01  0.2875657448D+00
 S   7 1.00       0.000000000000
      0.6665000000D+04  0.7733547404D-05
      0.2280000000D+03  0.2780721367D-03
      0.6471000000D+02 -0.2578756542D-02
      0.2106000000D+02 -0.8950876838D-02
      0.7495000000D+01 -0.1060588547D+00
      0.2797000000D+01 -0.1315176856D+00
      0.5215000000D+00  0.1099486598D+01
 S   1 1.00       0.000000000000
      0.1596000000D+00  0.1000000000D+01
 S   1 1.00       0.000000000000
      0.4690000000D-01  0.1000000000D+01
 P   3 1.00       0.000000000000
      0.9439000000D+01  0.5697925159D-01
      0.2002000000D+01  0.3132072115D+00
      0.5456000000D+00  0.7603767417D+00
 P   1 1.00       0.000000000000
      0.1517000000D+00  0.1000000000D+01
 P   1 1.00       0.000000000000
      0.4041000000D-01  0.1000000000D+01
 D   1 1.00       0.000000000000
      0.5500000000D+00  0.1000000000D+01
 D   1 1.00       0.000000000000
      0.1510000000D+00  0.1000000000D+01
 ****
      2 0
 S   3 1.00       0.000000000000
      0.1301000000D+02  0.3349872639D-01
      0.1962000000D+01  0.2348008012D+00
      0.4446000000D+00  0.8136829579D+00
 S   1 1.00       0.000000000000
      0.1220000000D+00  0.1000000000D+01
 S   1 1.00       0.000000000000
      0.2974000000D-01  0.1000000000D+01
 P   1 1.00       0.000000000000
      0.7270000000D+00  0.1000000000D+01
 P   1 1.00       0.000000000000
      0.1410000000D+00  0.1000000000D+01
 ****
      3 0
 S   3 1.00       0.000000000000
      0.1301000000D+02  0.3349872639D-01
      0.1962000000D+01  0.2348008012D+00
      0.4446000000D+00  0.8136829579D+00
 S   1 1.00       0.000000000000
      0.1220000000D+00  0.1000000000D+01
 S   1 1.00       0.000000000000
      0.2974000000D-01  0.1000000000D+01
 P   1 1.00       0.000000000000
      0.7270000000D+00  0.1000000000D+01
 P   1 1.00       0.000000000000
      0.1410000000D+00  0.1000000000D+01
 ****
      4 0
 S   3 1.00       0.000000000000
      0.1301000000D+02  0.3349872639D-01
      0.1962000000D+01  0.2348008012D+00
      0.4446000000D+00  0.8136829579D+00
 S   1 1.00       0.000000000000
      0.1220000000D+00  0.1000000000D+01
 S   1 1.00       0.000000000000
      0.2974000000D-01  0.1000000000D+01
 P   1 1.00       0.000000000000
      0.7270000000D+00  0.1000000000D+01
 P   1 1.00       0.000000000000
      0.1410000000D+00  0.1000000000D+01
 ****
      5 0
 S   3 1.00       0.000000000000
      0.1301000000D+02  0.3349872639D-01
      0.1962000000D+01  0.2348008012D+00
      0.4446000000D+00  0.8136829579D+00
 S   1 1.00       0.000000000000
      0.1220000000D+00  0.1000000000D+01
 S   1 1.00       0.000000000000
      0.2974000000D-01  0.1000000000D+01
 P   1 1.00       0.000000000000
      0.7270000000D+00  0.1000000000D+01
 P   1 1.00       0.000000000000
      0.1410000000D+00  0.1000000000D+01
 ****

 There are    17 symmetry adapted basis functions of A   symmetry.
 There are    14 symmetry adapted basis functions of B1  symmetry.
 There are    14 symmetry adapted basis functions of B2  symmetry.
 There are    14 symmetry adapted basis functions of B3  symmetry.
 Integral buffers will be    131072 words long.
 Raffenetti 1 integral format.
 Two-electron integral symmetry is turned on.
    59 basis functions,    87 primitive gaussians,    61 cartesian basis functions
     5 alpha electrons        5 beta electrons
       nuclear repulsion energy        13.4353891954 Hartrees.
 IExCor=    0 DFT=F Ex=HF Corr=None ExCW=0 ScaHFX=  1.000000
 ScaDFX=  1.000000  1.000000  1.000000  1.000000 ScalE2=  1.000000  1.000000
 IRadAn=      0 IRanWt=     -1 IRanGd=            0 ICorTp=0
 NAtoms=    5 NActive=    5 NUniq=    2 SFac= 3.00D+00 NAtFMM=   80 NAOKFM=F Big=F
 Leave Link  301 at Sun Aug 18 00:51:59 2024, MaxMem=   13107200 cpu:       0.1
 (Enter /programs/64bit/g09/g09-gfortran/bin/l302.exe)
 NPDir=0 NMtPBC=     1 NCelOv=     1 NCel=       1 NClECP=     1 NCelD=      1
         NCelK=      1 NCelE2=     1 NClLst=     1 CellRange=     0.0.
 One-electron integrals computed using PRISM.
 One-electron integral symmetry used in STVInt
 NBasis=    59 RedAO= T  NBF=    17    14    14    14
 NBsUse=    59 1.00D-06 NBFU=    17    14    14    14
 Leave Link  302 at Sun Aug 18 00:51:59 2024, MaxMem=   13107200 cpu:       0.1
 (Enter /programs/64bit/g09/g09-gfortran/bin/l303.exe)
 DipDrv:  MaxL=1.
 Leave Link  303 at Sun Aug 18 00:51:59 2024, MaxMem=   13107200 cpu:       0.0
 (Enter /programs/64bit/g09/g09-gfortran/bin/l401.exe)
 Harris functional with IExCor=  205 diagonalized for initial guess.
 ExpMin= 2.97D-02 ExpMax= 6.66D+03 ExpMxC= 2.28D+02 IAcc=3 IRadAn=         0 AccDes= 0.00D+00
 HarFok:  IExCor=  205 AccDes= 0.00D+00 IRadAn=         0 IDoV= 1
 ScaDFX=  1.000000  1.000000  1.000000  1.000000
 FoFCou: FMM=F IPFlag=           0 FMFlag=      100000 FMFlg1=           0
         NFxFlg=           0 DoJE=T BraDBF=F KetDBF=T FulRan=T
         Omega=  0.000000  0.000000  1.000000  0.000000  0.000000 ICntrl=     500 IOpCl=  0
         NMat0=    1 NMatS0=    1 NMatT0=    0 NMatD0=    1 NMtDS0=    0 NMtDT0=    0
         I1Cent=           4 NGrid=           0.
 Petite list used in FoFCou.
 Harris En= -40.3761637086228    
 Initial guess orbital symmetries:
       Occupied  (A1) (A1) (T2) (T2) (T2)
       Virtual   (A1) (T2) (T2) (T2) (T2) (T2) (T2) (A1) (T2) (T2)
                 (T2) (E) (E) (A1) (T2) (T2) (T2) (T1) (T1) (T1)
                 (A1) (T2) (T2) (T2) (E) (E) (T2) (T2) (T2) (T2)
                 (T2) (T2) (A1) (T2) (T2) (T2) (E) (E) (T1) (T1)
                 (T1) (A1) (T2) (T2) (T2) (T2) (T2) (T2) (E) (E)
                 (A1) (T2) (T2) (T2)
 The electronic state of the initial guess is 1-A1.
 Leave Link  401 at Sun Aug 18 00:52:00 2024, MaxMem=   13107200 cpu:       0.4
 (Enter /programs/64bit/g09/g09-gfortran/bin/l502.exe)
 Closed shell SCF:
 Requested convergence on RMS density matrix=1.00D-08 within 128 cycles.
 Requested convergence on MAX density matrix=1.00D-06.
 Requested convergence on             energy=1.00D-06.
 No special actions if energy rises.
 Using DIIS extrapolation, IDIIS=  1040.
 Integral symmetry usage will be decided dynamically.
 Keep R1 ints in memory in canonical form, NReq=2639883.
 IEnd=       30983 IEndB=       30983 NGot=    13107200 MDV=    11307726
 LenX=    11307726 LenY=    11303564
 Symmetry not used in FoFDir.
 MinBra= 0 MaxBra= 2 Meth= 1.
 IRaf=       0 NMat=   1 IRICut=       1 DoRegI=T DoRafI=F ISym2E= 0 JSym2E=0.

 Cycle   1  Pass 1  IDiag  1:
 E= -40.0746927987716    
 DIIS: error= 5.25D-02 at cycle   1 NSaved=   1.
 NSaved= 1 IEnMin= 1 EnMin= -40.0746927987716     IErMin= 1 ErrMin= 5.25D-02
 ErrMax= 5.25D-02 EMaxC= 1.00D-01 BMatC= 1.26D-01 BMatP= 1.26D-01
 IDIUse=3 WtCom= 4.75D-01 WtEn= 5.25D-01
 Coeff-Com:  0.100D+01
 Coeff-En:   0.100D+01
 Coeff:      0.100D+01
 Gap=     0.522 Goal=   None    Shift=    0.000
 GapD=    0.522 DampG=2.000 DampE=0.500 DampFc=1.0000 IDamp=-1.
 RMSDP=9.25D-03 MaxDP=1.35D-01              OVMax= 1.46D-01

 Cycle   2  Pass 1  IDiag  1:
 E= -40.1800168441887     Delta-E=       -0.105324045417 Rises=F Damp=F
 DIIS: error= 2.31D-02 at cycle   2 NSaved=   2.
 NSaved= 2 IEnMin= 2 EnMin= -40.1800168441887     IErMin= 2 ErrMin= 2.31D-02
 ErrMax= 2.31D-02 EMaxC= 1.00D-01 BMatC= 2.00D-02 BMatP= 1.26D-01
 IDIUse=3 WtCom= 7.69D-01 WtEn= 2.31D-01
 Coeff-Com:  0.266D+00 0.734D+00
 Coeff-En:   0.000D+00 0.100D+01
 Coeff:      0.205D+00 0.795D+00
 Gap=     0.591 Goal=   None    Shift=    0.000
 RMSDP=1.77D-03 MaxDP=3.47D-02 DE=-1.05D-01 OVMax= 4.44D-02

 Cycle   3  Pass 1  IDiag  1:
 E= -40.1992520647741     Delta-E=       -0.019235220585 Rises=F Damp=F
 DIIS: error= 2.24D-03 at cycle   3 NSaved=   3.
 NSaved= 3 IEnMin= 3 EnMin= -40.1992520647741     IErMin= 3 ErrMin= 2.24D-03
 ErrMax= 2.24D-03 EMaxC= 1.00D-01 BMatC= 2.78D-04 BMatP= 2.00D-02
 IDIUse=3 WtCom= 9.78D-01 WtEn= 2.24D-02
 Coeff-Com: -0.372D-01 0.207D-01 0.102D+01
 Coeff-En:   0.000D+00 0.000D+00 0.100D+01
 Coeff:     -0.363D-01 0.203D-01 0.102D+01
 Gap=     0.581 Goal=   None    Shift=    0.000
 RMSDP=2.77D-04 MaxDP=4.87D-03 DE=-1.92D-02 OVMax= 6.50D-03

 Cycle   4  Pass 1  IDiag  1:
 E= -40.1996200542769     Delta-E=       -0.000367989503 Rises=F Damp=F
 DIIS: error= 4.91D-04 at cycle   4 NSaved=   4.
 NSaved= 4 IEnMin= 4 EnMin= -40.1996200542769     IErMin= 4 ErrMin= 4.91D-04
 ErrMax= 4.91D-04 EMaxC= 1.00D-01 BMatC= 4.40D-06 BMatP= 2.78D-04
 IDIUse=3 WtCom= 9.95D-01 WtEn= 4.91D-03
 Coeff-Com:  0.115D-01-0.214D-01-0.404D+00 0.141D+01
 Coeff-En:   0.000D+00 0.000D+00 0.000D+00 0.100D+01
 Coeff:      0.114D-01-0.213D-01-0.402D+00 0.141D+01
 Gap=     0.581 Goal=   None    Shift=    0.000
 RMSDP=5.17D-05 MaxDP=5.75D-04 DE=-3.68D-04 OVMax= 1.63D-03

 Cycle   5  Pass 1  IDiag  1:
 E= -40.1996320934906     Delta-E=       -0.000012039214 Rises=F Damp=F
 DIIS: error= 2.89D-05 at cycle   5 NSaved=   5.
 NSaved= 5 IEnMin= 5 EnMin= -40.1996320934906     IErMin= 5 ErrMin= 2.89D-05
 ErrMax= 2.89D-05 EMaxC= 1.00D-01 BMatC= 2.91D-08 BMatP= 4.40D-06
 IDIUse=1 WtCom= 1.00D+00 WtEn= 0.00D+00
 Coeff-Com: -0.212D-02 0.419D-02 0.806D-01-0.331D+00 0.125D+01
 Coeff:     -0.212D-02 0.419D-02 0.806D-01-0.331D+00 0.125D+01
 Gap=     0.581 Goal=   None    Shift=    0.000
 RMSDP=5.93D-06 MaxDP=7.79D-05 DE=-1.20D-05 OVMax= 1.33D-04

 Cycle   6  Pass 1  IDiag  1:
 E= -40.1996321674147     Delta-E=       -0.000000073924 Rises=F Damp=F
 DIIS: error= 1.48D-06 at cycle   6 NSaved=   6.
 NSaved= 6 IEnMin= 6 EnMin= -40.1996321674147     IErMin= 6 ErrMin= 1.48D-06
 ErrMax= 1.48D-06 EMaxC= 1.00D-01 BMatC= 1.04D-10 BMatP= 2.91D-08
 IDIUse=1 WtCom= 1.00D+00 WtEn= 0.00D+00
 Coeff-Com:  0.222D-03-0.407D-03-0.838D-02 0.353D-01-0.157D+00 0.113D+01
 Coeff:      0.222D-03-0.407D-03-0.838D-02 0.353D-01-0.157D+00 0.113D+01
 Gap=     0.581 Goal=   None    Shift=    0.000
 RMSDP=1.68D-06 MaxDP=2.20D-05 DE=-7.39D-08 OVMax= 6.47D-06

 Cycle   7  Pass 1  IDiag  1:
 E= -40.1996321676656     Delta-E=       -0.000000000251 Rises=F Damp=F
 DIIS: error= 1.78D-07 at cycle   7 NSaved=   7.
 NSaved= 7 IEnMin= 7 EnMin= -40.1996321676656     IErMin= 7 ErrMin= 1.78D-07
 ErrMax= 1.78D-07 EMaxC= 1.00D-01 BMatC= 1.73D-12 BMatP= 1.04D-10
 IDIUse=1 WtCom= 1.00D+00 WtEn= 0.00D+00
 Coeff-Com:  0.796D-06-0.932D-05-0.627D-04 0.242D-03-0.656D-03-0.137D+00
 Coeff-Com:  0.114D+01
 Coeff:      0.796D-06-0.932D-05-0.627D-04 0.242D-03-0.656D-03-0.137D+00
 Coeff:      0.114D+01
 Gap=     0.581 Goal=   None    Shift=    0.000
 RMSDP=2.40D-07 MaxDP=3.05D-06 DE=-2.51D-10 OVMax= 9.69D-07

 Cycle   8  Pass 1  IDiag  1:
 E= -40.1996321676699     Delta-E=       -0.000000000004 Rises=F Damp=F
 DIIS: error= 1.54D-08 at cycle   8 NSaved=   8.
 NSaved= 8 IEnMin= 8 EnMin= -40.1996321676699     IErMin= 8 ErrMin= 1.54D-08
 ErrMax= 1.54D-08 EMaxC= 1.00D-01 BMatC= 3.66D-15 BMatP= 1.73D-12
 IDIUse=1 WtCom= 1.00D+00 WtEn= 0.00D+00
 Coeff-Com:  0.638D-07 0.904D-06 0.430D-05-0.233D-04 0.156D-03 0.177D-01
 Coeff-Com: -0.165D+00 0.115D+01
 Coeff:      0.638D-07 0.904D-06 0.430D-05-0.233D-04 0.156D-03 0.177D-01
 Coeff:     -0.165D+00 0.115D+01
 Gap=     0.581 Goal=   None    Shift=    0.000
 RMSDP=6.36D-09 MaxDP=5.56D-08 DE=-4.32D-12 OVMax= 2.83D-08

 SCF Done:  E(RHF) =  -40.1996321677     A.U. after    8 cycles
             Convg  =    0.6361D-08             -V/T =  2.0021
 KE= 4.011559116237D+01 PE=-1.198051934350D+02 EE= 2.605458090952D+01
 Leave Link  502 at Sun Aug 18 00:52:00 2024, MaxMem=   13107200 cpu:       0.4
 (Enter /programs/64bit/g09/g09-gfortran/bin/l801.exe)
 ExpMin= 2.97D-02 ExpMax= 6.66D+03 ExpMxC= 2.28D+02 IAcc=3 IRadAn=         5 AccDes= 0.00D+00
 HarFok:  IExCor=  205 AccDes= 0.00D+00 IRadAn=         5 IDoV=-2
 ScaDFX=  1.000000  1.000000  1.000000  1.000000
 Largest valence mixing into a core orbital is  1.10D-04
 Largest core mixing into a valence orbital is  3.46D-05
 Range of M.O.s used for correlation:     2    59
 NBasis=    59 NAE=     5 NBE=     5 NFC=     1 NFV=     0
 NROrb=     58 NOA=     4 NOB=     4 NVA=    54 NVB=    54

 **** Warning!!: The largest alpha MO coefficient is  0.19069586D+02

 Leave Link  801 at Sun Aug 18 00:52:01 2024, MaxMem=   13107200 cpu:       0.7
 (Enter /programs/64bit/g09/g09-gfortran/bin/l906.exe)
 Frozen-core derivative calculation, NFC=   1 NFV=   0.
 FulOut=F Deriv=T AODrv=T NAtomX=     5
   MMem=         268  MDisk=           4 MDiskD=           4
  W3Min=       17995 MinDsk=      100569 NBas6D=          61
 NBas2D=        1954    NTT=        1891    LW2=     2040000
    MDV=    13046101 MDiskM=        2515 NBas2p=         793
 Fully direct method using O(ONN) memory.
 IMap=   1   2   3   4   5
 JobTyp=1 Pass  1:  I=   2 to   5 NPSUse=  1 ParTrn=F ParDer=F DoDerP=T.
 Spin components of T(2) and E(2):
     alpha-alpha T2 =       0.5801777931D-02 E2=     -0.1593329836D-01
     alpha-beta  T2 =       0.4568258807D-01 E2=     -0.1360546559D+00
     beta-beta   T2 =       0.5801777931D-02 E2=     -0.1593329836D-01
 The integrals were generated   1 times.
 ANorm=    0.1028244204D+01
 E2 =    -0.1679212526D+00 EUMP2 =    -0.40367553420260D+02
 Leave Link  906 at Sun Aug 18 00:52:02 2024, MaxMem=   13107200 cpu:       0.9
 (Enter /programs/64bit/g09/g09-gfortran/bin/l1002.exe)
 Minotr:  Closed shell wavefunction.
          Computing MP2/KS-MP2 derivatives.
          Using Z-Vector for PSCF gradient.
          Skipping F1 and S1 gradient terms here.
          IDoAtm=11111
          Frozen-core window.
          Direct CPHF calculation.
          Differentiating once with respect to electric field.
                with respect to dipole field.
          Differentiating once with respect to nuclear coordinates.
          Using symmetry in CPHF.
          Requested convergence is 1.0D-10 RMS, and 1.0D-09 maximum.
          NewPWx=F KeepS1=T KeepF1=T KeepIn=T MapXYZ=F SortEE=F KeepMc=T.
          MDV=      13107146 using IRadAn=       0.
          Keep R1 ints in memory in canonical form, NReq=2610534.
 Symmetry not used in FoFDir.
 MinBra= 0 MaxBra= 2 Meth= 1.
 IRaf=       0 NMat=   1 IRICut=       1 DoRegI=T DoRafI=F ISym2E= 0 JSym2E=0.
          Solving linear equations separately, MaxMat=       0.
          There are     1 degrees of freedom in the 1st order CPHF.  IDoFFX=0.
 LinEq1:  Iter=  0 NonCon=     1 RMS=3.77D-03 Max=1.54D-02
 AX will form     1 AO Fock derivatives at one time.
 LinEq1:  Iter=  1 NonCon=     1 RMS=8.21D-04 Max=3.62D-03
 LinEq1:  Iter=  2 NonCon=     1 RMS=2.27D-04 Max=1.65D-03
 LinEq1:  Iter=  3 NonCon=     1 RMS=1.55D-05 Max=1.07D-04
 LinEq1:  Iter=  4 NonCon=     1 RMS=8.13D-07 Max=6.30D-06
 LinEq1:  Iter=  5 NonCon=     1 RMS=4.40D-08 Max=2.59D-07
 LinEq1:  Iter=  6 NonCon=     1 RMS=3.04D-09 Max=1.91D-08
 LinEq1:  Iter=  7 NonCon=     1 RMS=1.90D-10 Max=1.42D-09
 LinEq1:  Iter=  8 NonCon=     0 RMS=6.61D-12 Max=4.45D-11
 Linear equations converged to 1.000D-10 1.000D-09 after     8 iterations.
 End of Minotr Frequency-dependent properties file   721 does not exist.
 End of Minotr Frequency-dependent properties file   722 does not exist.
 Leave Link 1002 at Sun Aug 18 00:52:03 2024, MaxMem=   13107200 cpu:       0.3
 (Enter /programs/64bit/g09/g09-gfortran/bin/l601.exe)
 Copying SCF densities to generalized density rwf, IOpCl= 0 IROHF=0.

 **********************************************************************

            Population analysis using the SCF density.

 **********************************************************************

 Orbital symmetries:
       Occupied  (A1) (A1) (T2) (T2) (T2)
       Virtual   (A1) (T2) (T2) (T2) (T2) (T2) (T2) (A1) (T2) (T2)
                 (T2) (E) (E) (A1) (T2) (T2) (T2) (T1) (T1) (T1)
                 (A1) (T2) (T2) (T2) (T2) (T2) (T2) (E) (E) (T2)
                 (T2) (T2) (A1) (T2) (T2) (T2) (E) (E) (T1) (T1)
                 (T1) (A1) (T2) (T2) (T2) (T2) (T2) (T2) (E) (E)
                 (A1) (T2) (T2) (T2)
 The electronic state is 1-A1.
 Alpha  occ. eigenvalues --  -11.21583  -0.94332  -0.54369  -0.54369  -0.54369
 Alpha virt. eigenvalues --    0.03698   0.06371   0.06371   0.06371   0.14619
 Alpha virt. eigenvalues --    0.14619   0.14619   0.17430   0.30037   0.30037
 Alpha virt. eigenvalues --    0.30037   0.30625   0.30625   0.41837   0.44014
 Alpha virt. eigenvalues --    0.44014   0.44014   0.52272   0.52272   0.52272
 Alpha virt. eigenvalues --    0.56752   0.60747   0.60747   0.60747   0.66726
 Alpha virt. eigenvalues --    0.66726   0.66726   0.73368   0.73368   0.98709
 Alpha virt. eigenvalues --    0.98709   0.98709   1.12478   1.34440   1.34440
 Alpha virt. eigenvalues --    1.34440   1.74061   1.74061   1.89015   1.89015
 Alpha virt. eigenvalues --    1.89015   1.98564   2.21061   2.21061   2.21061
 Alpha virt. eigenvalues --    2.28977   2.28977   2.28977   2.63401   2.63401
 Alpha virt. eigenvalues --    2.82818   2.92712   2.92712   2.92712
     Molecular Orbital Coefficients:
                           1         2         3         4         5
                        (A1)--O   (A1)--O   (T2)--O   (T2)--O   (T2)--O
     Eigenvalues --   -11.21583  -0.94332  -0.54369  -0.54369  -0.54369
   1 1   C  1S          0.99757  -0.18687   0.00000   0.00000   0.00000
   2        2S          0.02081   0.37231   0.00000   0.00000   0.00000
   3        3S         -0.02973   0.12837   0.00000   0.00000   0.00000
   4        4S         -0.00868   0.00073   0.00000   0.00000   0.00000
   5        5PX         0.00000   0.00000   0.00000   0.42627   0.00000
   6        5PY         0.00000   0.00000   0.42627   0.00000   0.00000
   7        5PZ         0.00000   0.00000   0.00000   0.00000   0.42627
   8        6PX         0.00000   0.00000   0.00000   0.10837   0.00000
   9        6PY         0.00000   0.00000   0.10837   0.00000   0.00000
  10        6PZ         0.00000   0.00000   0.00000   0.00000   0.10837
  11        7PX         0.00000   0.00000   0.00000  -0.01302   0.00000
  12        7PY         0.00000   0.00000  -0.01302   0.00000   0.00000
  13        7PZ         0.00000   0.00000   0.00000   0.00000  -0.01302
  14        8D 0       -0.00000   0.00000   0.00000   0.00000   0.00000
  15        8D+1        0.00000   0.00000   0.02761   0.00000   0.00000
  16        8D-1        0.00000   0.00000   0.00000   0.02761   0.00000
  17        8D+2       -0.00000  -0.00000   0.00000   0.00000   0.00000
  18        8D-2        0.00000   0.00000   0.00000   0.00000   0.02761
  19        9D 0       -0.00000  -0.00000   0.00000   0.00000   0.00000
  20        9D+1        0.00000   0.00000  -0.02823   0.00000   0.00000
  21        9D-1        0.00000   0.00000   0.00000  -0.02823   0.00000
  22        9D+2        0.00000  -0.00000   0.00000   0.00000   0.00000
  23        9D-2        0.00000   0.00000   0.00000   0.00000  -0.02823
  24 2   H  1S          0.00042   0.18751   0.22873   0.22873   0.22873
  25        2S          0.00743   0.04778   0.19069   0.19069   0.19069
  26        3S          0.00082   0.00096   0.01869   0.01869   0.01869
  27        4PX         0.00018  -0.01496  -0.01174   0.00183  -0.01174
  28        4PY         0.00018  -0.01496   0.00183  -0.01174  -0.01174
  29        4PZ         0.00018  -0.01496  -0.01174  -0.01174   0.00183
  30        5PX        -0.00130  -0.00930  -0.01813  -0.02405  -0.01813
  31        5PY        -0.00130  -0.00930  -0.02405  -0.01813  -0.01813
  32        5PZ        -0.00130  -0.00930  -0.01813  -0.01813  -0.02405
  33 3   H  1S          0.00042   0.18751  -0.22873  -0.22873   0.22873
  34        2S          0.00743   0.04778  -0.19069  -0.19069   0.19069
  35        3S          0.00082   0.00096  -0.01869  -0.01869   0.01869
  36        4PX        -0.00018   0.01496  -0.01174   0.00183   0.01174
  37        4PY        -0.00018   0.01496   0.00183  -0.01174   0.01174
  38        4PZ         0.00018  -0.01496   0.01174   0.01174   0.00183
  39        5PX         0.00130   0.00930  -0.01813  -0.02405   0.01813
  40        5PY         0.00130   0.00930  -0.02405  -0.01813   0.01813
  41        5PZ        -0.00130  -0.00930   0.01813   0.01813  -0.02405
  42 4   H  1S          0.00042   0.18751   0.22873  -0.22873  -0.22873
  43        2S          0.00743   0.04778   0.19069  -0.19069  -0.19069
  44        3S          0.00082   0.00096   0.01869  -0.01869  -0.01869
  45        4PX        -0.00018   0.01496   0.01174   0.00183  -0.01174
  46        4PY         0.00018  -0.01496   0.00183   0.01174   0.01174
  47        4PZ        -0.00018   0.01496   0.01174  -0.01174   0.00183
  48        5PX         0.00130   0.00930   0.01813  -0.02405  -0.01813
  49        5PY        -0.00130  -0.00930  -0.02405   0.01813   0.01813
  50        5PZ         0.00130   0.00930   0.01813  -0.01813  -0.02405
  51 5   H  1S          0.00042   0.18751  -0.22873   0.22873  -0.22873
  52        2S          0.00743   0.04778  -0.19069   0.19069  -0.19069
  53        3S          0.00082   0.00096  -0.01869   0.01869  -0.01869
  54        4PX         0.00018  -0.01496   0.01174   0.00183   0.01174
  55        4PY        -0.00018   0.01496   0.00183   0.01174  -0.01174
  56        4PZ        -0.00018   0.01496  -0.01174   0.01174   0.00183
  57        5PX        -0.00130  -0.00930   0.01813  -0.02405   0.01813
  58        5PY         0.00130   0.00930  -0.02405   0.01813  -0.01813
  59        5PZ         0.00130   0.00930  -0.01813   0.01813  -0.02405
                           6         7         8         9        10
                        (A1)--V   (T2)--V   (T2)--V   (T2)--V   (T2)--V
     Eigenvalues --     0.03698   0.06371   0.06371   0.06371   0.14619
   1 1   C  1S         -0.03844   0.00000   0.00000   0.00000   0.00000
   2        2S          0.02883   0.00000   0.00000   0.00000   0.00000
   3        3S          1.02375   0.00000   0.00000   0.00000   0.00000
   4        4S          3.48413   0.00000   0.00000   0.00000   0.00000
   5        5PX         0.00000   0.00000   0.00000  -0.06980   0.00000
   6        5PY         0.00000   0.00000  -0.06980   0.00000   0.00000
   7        5PZ         0.00000  -0.06980   0.00000   0.00000  -0.08258
   8        6PX         0.00000   0.00000   0.00000  -0.12620   0.00000
   9        6PY         0.00000   0.00000  -0.12620   0.00000   0.00000
  10        6PZ         0.00000  -0.12620   0.00000   0.00000   1.53364
  11        7PX         0.00000   0.00000   0.00000  -1.50463   0.00000
  12        7PY         0.00000   0.00000  -1.50463   0.00000   0.00000
  13        7PZ         0.00000  -1.50463   0.00000   0.00000   3.99537
  14        8D 0        0.00000   0.00000   0.00000   0.00000   0.00000
  15        8D+1        0.00000   0.00000  -0.00041   0.00000   0.00000
  16        8D-1        0.00000   0.00000   0.00000  -0.00041   0.00000
  17        8D+2        0.00000   0.00000   0.00000   0.00000   0.00000
  18        8D-2        0.00000  -0.00041   0.00000   0.00000  -0.00976
  19        9D 0       -0.00000   0.00000   0.00000   0.00000   0.00000
  20        9D+1        0.00000   0.00000   0.03183   0.00000   0.00000
  21        9D-1        0.00000   0.00000   0.00000   0.03183   0.00000
  22        9D+2       -0.00000   0.00000   0.00000   0.00000   0.00000
  23        9D-2        0.00000   0.03183   0.00000   0.00000   0.33626
  24 2   H  1S          0.00548  -0.01650  -0.01650  -0.01650  -0.07249
  25        2S         -0.52703   0.00726   0.00726   0.00726  -1.98212
  26        3S         -0.88161   2.89419   2.89419   2.89419  -3.31759
  27        4PX        -0.00044   0.00530   0.00530  -0.00016   0.00509
  28        4PY        -0.00044   0.00530  -0.00016   0.00530   0.00509
  29        4PZ        -0.00044  -0.00016   0.00530   0.00530   0.01021
  30        5PX         0.06117  -0.03997  -0.03997   0.03871   0.28531
  31        5PY         0.06117  -0.03997   0.03871  -0.03997   0.28531
  32        5PZ         0.06117   0.03871  -0.03997  -0.03997   0.14997
  33 3   H  1S          0.00548  -0.01650   0.01650   0.01650  -0.07249
  34        2S         -0.52703   0.00726  -0.00726  -0.00726  -1.98212
  35        3S         -0.88161   2.89419  -2.89419  -2.89419  -3.31759
  36        4PX         0.00044  -0.00530   0.00530  -0.00016  -0.00509
  37        4PY         0.00044  -0.00530  -0.00016   0.00530  -0.00509
  38        4PZ        -0.00044  -0.00016  -0.00530  -0.00530   0.01021
  39        5PX        -0.06117   0.03997  -0.03997   0.03871  -0.28531
  40        5PY        -0.06117   0.03997   0.03871  -0.03997  -0.28531
  41        5PZ         0.06117   0.03871   0.03997   0.03997   0.14997
  42 4   H  1S          0.00548   0.01650  -0.01650   0.01650   0.07249
  43        2S         -0.52703  -0.00726   0.00726  -0.00726   1.98212
  44        3S         -0.88161  -2.89419   2.89419  -2.89419   3.31759
  45        4PX         0.00044   0.00530  -0.00530  -0.00016   0.00509
  46        4PY        -0.00044  -0.00530  -0.00016  -0.00530  -0.00509
  47        4PZ         0.00044  -0.00016  -0.00530   0.00530   0.01021
  48        5PX        -0.06117  -0.03997   0.03997   0.03871   0.28531
  49        5PY         0.06117   0.03997   0.03871   0.03997  -0.28531
  50        5PZ        -0.06117   0.03871   0.03997  -0.03997   0.14997
  51 5   H  1S          0.00548   0.01650   0.01650  -0.01650   0.07249
  52        2S         -0.52703  -0.00726  -0.00726   0.00726   1.98212
  53        3S         -0.88161  -2.89419  -2.89419   2.89419   3.31759
  54        4PX        -0.00044  -0.00530  -0.00530  -0.00016  -0.00509
  55        4PY         0.00044   0.00530  -0.00016  -0.00530   0.00509
  56        4PZ         0.00044  -0.00016   0.00530  -0.00530   0.01021
  57        5PX         0.06117   0.03997   0.03997   0.03871  -0.28531
  58        5PY        -0.06117  -0.03997   0.03871   0.03997   0.28531
  59        5PZ        -0.06117   0.03871  -0.03997   0.03997   0.14997
                          11        12        13        14        15
                        (T2)--V   (T2)--V   (A1)--V   (T2)--V   (T2)--V
     Eigenvalues --     0.14619   0.14619   0.17430   0.30037   0.30037
   1 1   C  1S          0.00000   0.00000   0.04439   0.00000   0.00000
   2        2S          0.00000   0.00000  -0.28659   0.00000   0.00000
   3        3S          0.00000   0.00000   2.52212   0.00000   0.00000
   4        4S          0.00000   0.00000   8.19181   0.00000   0.00000
   5        5PX        -0.08258   0.00000   0.00000   0.00000   0.27818
   6        5PY         0.00000  -0.08258   0.00000   0.27818   0.00000
   7        5PZ         0.00000   0.00000   0.00000   0.00000   0.00000
   8        6PX         1.53364   0.00000   0.00000   0.00000   0.74552
   9        6PY         0.00000   1.53364   0.00000   0.74552   0.00000
  10        6PZ         0.00000   0.00000   0.00000   0.00000   0.00000
  11        7PX         3.99537   0.00000   0.00000   0.00000  -1.02146
  12        7PY         0.00000   3.99537   0.00000  -1.02146   0.00000
  13        7PZ         0.00000   0.00000   0.00000   0.00000   0.00000
  14        8D 0        0.00000   0.00000   0.00000   0.00000   0.00000
  15        8D+1        0.00000  -0.00976   0.00000  -0.03002   0.00000
  16        8D-1       -0.00976   0.00000   0.00000   0.00000  -0.03002
  17        8D+2        0.00000   0.00000  -0.00000   0.00000   0.00000
  18        8D-2        0.00000   0.00000   0.00000   0.00000   0.00000
  19        9D 0        0.00000   0.00000  -0.00000   0.00000   0.00000
  20        9D+1        0.00000   0.33626   0.00000   0.30532   0.00000
  21        9D-1        0.33626   0.00000   0.00000   0.00000   0.30532
  22        9D+2        0.00000   0.00000   0.00000   0.00000   0.00000
  23        9D-2        0.00000   0.00000   0.00000   0.00000   0.00000
  24 2   H  1S         -0.07249  -0.07249  -0.00131  -0.06261  -0.06261
  25        2S         -1.98212  -1.98212  -1.64524  -1.14050  -1.14050
  26        3S         -3.31759  -3.31759  -1.19262   1.44965   1.44965
  27        4PX         0.01021   0.00509   0.01596   0.00166   0.00150
  28        4PY         0.00509   0.01021   0.01596   0.00150   0.00166
  29        4PZ         0.00509   0.00509   0.01596   0.00166   0.00166
  30        5PX         0.14997   0.28531   0.22850  -0.19134   0.20303
  31        5PY         0.28531   0.14997   0.22850   0.20303  -0.19134
  32        5PZ         0.28531   0.28531   0.22850  -0.19134  -0.19134
  33 3   H  1S          0.07249   0.07249  -0.00131   0.06261   0.06261
  34        2S          1.98212   1.98212  -1.64524   1.14050   1.14050
  35        3S          3.31759   3.31759  -1.19262  -1.44965  -1.44965
  36        4PX         0.01021   0.00509  -0.01596   0.00166   0.00150
  37        4PY         0.00509   0.01021  -0.01596   0.00150   0.00166
  38        4PZ        -0.00509  -0.00509   0.01596  -0.00166  -0.00166
  39        5PX         0.14997   0.28531  -0.22850  -0.19134   0.20303
  40        5PY         0.28531   0.14997  -0.22850   0.20303  -0.19134
  41        5PZ        -0.28531  -0.28531   0.22850   0.19134   0.19134
  42 4   H  1S          0.07249  -0.07249  -0.00131  -0.06261   0.06261
  43        2S          1.98212  -1.98212  -1.64524  -1.14050   1.14050
  44        3S          3.31759  -3.31759  -1.19262   1.44965  -1.44965
  45        4PX         0.01021  -0.00509  -0.01596  -0.00166   0.00150
  46        4PY        -0.00509   0.01021   0.01596   0.00150  -0.00166
  47        4PZ         0.00509  -0.00509  -0.01596  -0.00166   0.00166
  48        5PX         0.14997  -0.28531  -0.22850   0.19134   0.20303
  49        5PY        -0.28531   0.14997   0.22850   0.20303   0.19134
  50        5PZ         0.28531  -0.28531  -0.22850   0.19134  -0.19134
  51 5   H  1S         -0.07249   0.07249  -0.00131   0.06261  -0.06261
  52        2S         -1.98212   1.98212  -1.64524   1.14050  -1.14050
  53        3S         -3.31759   3.31759  -1.19262  -1.44965   1.44965
  54        4PX         0.01021  -0.00509   0.01596  -0.00166   0.00150
  55        4PY        -0.00509   0.01021  -0.01596   0.00150  -0.00166
  56        4PZ        -0.00509   0.00509  -0.01596   0.00166  -0.00166
  57        5PX         0.14997  -0.28531   0.22850   0.19134   0.20303
  58        5PY        -0.28531   0.14997  -0.22850   0.20303   0.19134
  59        5PZ        -0.28531   0.28531  -0.22850  -0.19134   0.19134
                          16        17        18        19        20
                        (T2)--V   (E)--V    (E)--V    (A1)--V   (T2)--V
     Eigenvalues --     0.30037   0.30625   0.30625   0.41837   0.44014
   1 1   C  1S          0.00000  -0.00000   0.00000  -0.09597   0.00000
   2        2S          0.00000  -0.00000  -0.00000   0.14778   0.00000
   3        3S          0.00000   0.00000  -0.00000   0.80482   0.00000
   4        4S          0.00000   0.00000  -0.00000   6.84695   0.00000
   5        5PX         0.00000   0.00000   0.00000   0.00000   0.10998
   6        5PY         0.00000   0.00000   0.00000   0.00000   0.00000
   7        5PZ         0.27818   0.00000   0.00000   0.00000   0.00000
   8        6PX         0.00000   0.00000   0.00000   0.00000   4.78057
   9        6PY         0.00000   0.00000   0.00000   0.00000   0.00000
  10        6PZ         0.74552   0.00000   0.00000   0.00000   0.00000
  11        7PX         0.00000   0.00000   0.00000   0.00000   2.92008
  12        7PY         0.00000   0.00000   0.00000   0.00000   0.00000
  13        7PZ        -1.02146   0.00000   0.00000   0.00000   0.00000
  14        8D 0        0.00000  -0.03051  -0.08300   0.00000   0.00000
  15        8D+1        0.00000   0.00000   0.00000   0.00000   0.00000
  16        8D-1        0.00000   0.00000   0.00000   0.00000   0.07450
  17        8D+2        0.00000  -0.08300   0.03051   0.00000   0.00000
  18        8D-2       -0.03002   0.00000   0.00000   0.00000   0.00000
  19        9D 0        0.00000   0.46122   1.25469  -0.00000   0.00000
  20        9D+1        0.00000   0.00000   0.00000   0.00000   0.00000
  21        9D-1        0.00000   0.00000   0.00000   0.00000   0.95247
  22        9D+2        0.00000   1.25469  -0.46122  -0.00000   0.00000
  23        9D-2        0.30532   0.00000   0.00000   0.00000   0.00000
  24 2   H  1S         -0.06261  -0.00000   0.00000  -0.05571   0.04856
  25        2S         -1.14050  -0.00000   0.00000  -1.89723  -4.72543
  26        3S          1.44965  -0.00000  -0.00000  -0.65928  -1.69404
  27        4PX         0.00166  -0.00419   0.00502   0.01008   0.00630
  28        4PY         0.00166   0.00644   0.00111   0.01008   0.01647
  29        4PZ         0.00150  -0.00226  -0.00613   0.01008   0.01647
  30        5PX        -0.19134  -0.60732   0.72850  -0.24275   0.17971
  31        5PY        -0.19134   0.93456   0.16171  -0.24275   0.88122
  32        5PZ         0.20303  -0.32724  -0.89021  -0.24275   0.88122
  33 3   H  1S         -0.06261  -0.00000   0.00000  -0.05571  -0.04856
  34        2S         -1.14050  -0.00000   0.00000  -1.89723   4.72543
  35        3S          1.44965  -0.00000  -0.00000  -0.65928   1.69404
  36        4PX        -0.00166   0.00419  -0.00502  -0.01008   0.00630
  37        4PY        -0.00166  -0.00644  -0.00111  -0.01008   0.01647
  38        4PZ         0.00150  -0.00226  -0.00613   0.01008  -0.01647
  39        5PX         0.19134   0.60732  -0.72850   0.24275   0.17971
  40        5PY         0.19134  -0.93456  -0.16171   0.24275   0.88122
  41        5PZ         0.20303  -0.32724  -0.89021  -0.24275  -0.88122
  42 4   H  1S          0.06261  -0.00000   0.00000  -0.05571  -0.04856
  43        2S          1.14050  -0.00000   0.00000  -1.89723   4.72543
  44        3S         -1.44965  -0.00000  -0.00000  -0.65928   1.69404
  45        4PX         0.00166   0.00419  -0.00502  -0.01008   0.00630
  46        4PY        -0.00166   0.00644   0.00111   0.01008  -0.01647
  47        4PZ         0.00150   0.00226   0.00613  -0.01008   0.01647
  48        5PX        -0.19134   0.60732  -0.72850   0.24275   0.17971
  49        5PY         0.19134   0.93456   0.16171  -0.24275  -0.88122
  50        5PZ         0.20303   0.32724   0.89021   0.24275   0.88122
  51 5   H  1S          0.06261  -0.00000   0.00000  -0.05571   0.04856
  52        2S          1.14050  -0.00000   0.00000  -1.89723  -4.72543
  53        3S         -1.44965  -0.00000  -0.00000  -0.65928  -1.69404
  54        4PX        -0.00166  -0.00419   0.00502   0.01008   0.00630
  55        4PY         0.00166  -0.00644  -0.00111  -0.01008  -0.01647
  56        4PZ         0.00150   0.00226   0.00613  -0.01008  -0.01647
  57        5PX         0.19134  -0.60732   0.72850  -0.24275   0.17971
  58        5PY        -0.19134  -0.93456  -0.16171   0.24275  -0.88122
  59        5PZ         0.20303   0.32724   0.89021   0.24275  -0.88122
                          21        22        23        24        25
                        (T2)--V   (T2)--V   (T1)--V   (T1)--V   (T1)--V
     Eigenvalues --     0.44014   0.44014   0.52272   0.52272   0.52272
   1 1   C  1S          0.00000   0.00000   0.00000   0.00000   0.00000
   2        2S          0.00000   0.00000   0.00000   0.00000   0.00000
   3        3S          0.00000   0.00000   0.00000   0.00000   0.00000
   4        4S          0.00000   0.00000   0.00000   0.00000   0.00000
   5        5PX         0.00000   0.00000   0.00000   0.00000   0.00000
   6        5PY         0.00000   0.10998   0.00000  -0.00000   0.00000
   7        5PZ         0.10998   0.00000   0.00000   0.00000   0.00000
   8        6PX         0.00000   0.00000   0.00000   0.00000  -0.00000
   9        6PY         0.00000   4.78057   0.00000   0.00000   0.00000
  10        6PZ         4.78057   0.00000   0.00000   0.00000   0.00000
  11        7PX         0.00000   0.00000   0.00000   0.00000   0.00000
  12        7PY         0.00000   2.92008   0.00000  -0.00000   0.00000
  13        7PZ         2.92008   0.00000   0.00000   0.00000   0.00000
  14        8D 0        0.00000   0.00000   0.00000   0.00000   0.00000
  15        8D+1        0.00000   0.07450   0.00000  -0.00000   0.00000
  16        8D-1        0.00000   0.00000   0.00000   0.00000   0.00000
  17        8D+2        0.00000   0.00000   0.00000   0.00000   0.00000
  18        8D-2        0.07450   0.00000   0.00000   0.00000   0.00000
  19        9D 0        0.00000   0.00000   0.00000   0.00000   0.00000
  20        9D+1        0.00000   0.95247   0.00000   0.00000   0.00000
  21        9D-1        0.00000   0.00000   0.00000   0.00000  -0.00000
  22        9D+2        0.00000   0.00000   0.00000   0.00000   0.00000
  23        9D-2        0.95247   0.00000   0.00000   0.00000   0.00000
  24 2   H  1S          0.04856   0.04856   0.00000  -0.00000   0.00000
  25        2S         -4.72543  -4.72543   0.00000  -0.00000   0.00000
  26        3S         -1.69404  -1.69404  -0.00000   0.00000  -0.00000
  27        4PX         0.01647   0.01647  -0.01978  -0.01978   0.00000
  28        4PY         0.01647   0.00630   0.01978  -0.00000  -0.01978
  29        4PZ         0.00630   0.01647   0.00000   0.01978   0.01978
  30        5PX         0.88122   0.88122   0.82814   0.82814  -0.00000
  31        5PY         0.88122   0.17971  -0.82814   0.00000   0.82814
  32        5PZ         0.17971   0.88122  -0.00000  -0.82814  -0.82814
  33 3   H  1S          0.04856  -0.04856   0.00000   0.00000  -0.00000
  34        2S         -4.72543   4.72543   0.00000   0.00000  -0.00000
  35        3S         -1.69404   1.69404  -0.00000  -0.00000   0.00000
  36        4PX        -0.01647   0.01647   0.01978  -0.01978   0.00000
  37        4PY        -0.01647   0.00630  -0.01978  -0.00000  -0.01978
  38        4PZ         0.00630  -0.01647   0.00000  -0.01978  -0.01978
  39        5PX        -0.88122   0.88122  -0.82814   0.82814  -0.00000
  40        5PY        -0.88122   0.17971   0.82814   0.00000   0.82814
  41        5PZ         0.17971  -0.88122  -0.00000   0.82814   0.82814
  42 4   H  1S         -0.04856   0.04856  -0.00000  -0.00000  -0.00000
  43        2S          4.72543  -4.72543  -0.00000  -0.00000  -0.00000
  44        3S          1.69404  -1.69404   0.00000   0.00000   0.00000
  45        4PX         0.01647  -0.01647  -0.01978   0.01978   0.00000
  46        4PY        -0.01647   0.00630  -0.01978  -0.00000   0.01978
  47        4PZ         0.00630  -0.01647   0.00000  -0.01978   0.01978
  48        5PX         0.88122  -0.88122   0.82814  -0.82814  -0.00000
  49        5PY        -0.88122   0.17971   0.82814   0.00000  -0.82814
  50        5PZ         0.17971  -0.88122  -0.00000   0.82814  -0.82814
  51 5   H  1S         -0.04856  -0.04856  -0.00000   0.00000   0.00000
  52        2S          4.72543   4.72543  -0.00000   0.00000   0.00000
  53        3S          1.69404   1.69404   0.00000  -0.00000  -0.00000
  54        4PX        -0.01647  -0.01647   0.01978   0.01978   0.00000
  55        4PY         0.01647   0.00630   0.01978  -0.00000   0.01978
  56        4PZ         0.00630   0.01647   0.00000   0.01978  -0.01978
  57        5PX        -0.88122  -0.88122  -0.82814  -0.82814  -0.00000
  58        5PY         0.88122   0.17971  -0.82814   0.00000  -0.82814
  59        5PZ         0.17971   0.88122  -0.00000  -0.82814   0.82814
                          26        27        28        29        30
                        (A1)--V   (T2)--V   (T2)--V   (T2)--V   (T2)--V
     Eigenvalues --     0.56752   0.60747   0.60747   0.60747   0.66726
   1 1   C  1S         -0.16457   0.00000   0.00000   0.00000   0.00000
   2        2S         -0.13125   0.00000   0.00000   0.00000   0.00000
   3        3S         11.78758   0.00000   0.00000   0.00000   0.00000
   4        4S          6.32732   0.00000   0.00000   0.00000   0.00000
   5        5PX         0.00000   0.00000   0.19522   0.00000   0.15353
   6        5PY         0.00000   0.00000   0.00000   0.19522   0.00000
   7        5PZ         0.00000   0.19522   0.00000   0.00000   0.00000
   8        6PX         0.00000   0.00000   3.96586   0.00000  -6.64292
   9        6PY         0.00000   0.00000   0.00000   3.96586   0.00000
  10        6PZ         0.00000   3.96586   0.00000   0.00000   0.00000
  11        7PX         0.00000   0.00000   0.91585   0.00000   0.42421
  12        7PY         0.00000   0.00000   0.00000   0.91585   0.00000
  13        7PZ         0.00000   0.91585   0.00000   0.00000   0.00000
  14        8D 0        0.00000   0.00000   0.00000   0.00000   0.00000
  15        8D+1        0.00000   0.00000   0.00000   0.05106   0.00000
  16        8D-1        0.00000   0.00000   0.05106   0.00000   0.00914
  17        8D+2       -0.00000   0.00000   0.00000   0.00000   0.00000
  18        8D-2        0.00000   0.05106   0.00000   0.00000   0.00000
  19        9D 0       -0.00000   0.00000   0.00000   0.00000   0.00000
  20        9D+1        0.00000   0.00000   0.00000  -1.56461   0.00000
  21        9D-1        0.00000   0.00000  -1.56461   0.00000  -2.61153
  22        9D+2       -0.00000   0.00000   0.00000   0.00000   0.00000
  23        9D-2        0.00000  -1.56461   0.00000   0.00000   0.00000
  24 2   H  1S         -0.01677  -0.08711  -0.08711  -0.08711  -0.02820
  25        2S         -3.80444  -2.58484  -2.58484  -2.58484  10.68428
  26        3S         -0.70965  -0.81248  -0.81248  -0.81248  -0.47511
  27        4PX         0.00191   0.00263   0.00723   0.00263   0.03294
  28        4PY         0.00191   0.00263   0.00263   0.00723  -0.01446
  29        4PZ         0.00191   0.00723   0.00263   0.00263  -0.01446
  30        5PX         0.93415   1.29512   0.22664   1.29512  -3.79544
  31        5PY         0.93415   1.29512   1.29512   0.22664  -1.81279
  32        5PZ         0.93415   0.22664   1.29512   1.29512  -1.81279
  33 3   H  1S         -0.01677  -0.08711   0.08711   0.08711   0.02820
  34        2S         -3.80444  -2.58484   2.58484   2.58484 -10.68428
  35        3S         -0.70965  -0.81248   0.81248   0.81248   0.47511
  36        4PX        -0.00191  -0.00263   0.00723   0.00263   0.03294
  37        4PY        -0.00191  -0.00263   0.00263   0.00723  -0.01446
  38        4PZ         0.00191   0.00723  -0.00263  -0.00263   0.01446
  39        5PX        -0.93415  -1.29512   0.22664   1.29512  -3.79544
  40        5PY        -0.93415  -1.29512   1.29512   0.22664  -1.81279
  41        5PZ         0.93415   0.22664  -1.29512  -1.29512   1.81279
  42 4   H  1S         -0.01677   0.08711   0.08711  -0.08711   0.02820
  43        2S         -3.80444   2.58484   2.58484  -2.58484 -10.68428
  44        3S         -0.70965   0.81248   0.81248  -0.81248   0.47511
  45        4PX        -0.00191   0.00263   0.00723  -0.00263   0.03294
  46        4PY         0.00191  -0.00263  -0.00263   0.00723   0.01446
  47        4PZ        -0.00191   0.00723   0.00263  -0.00263  -0.01446
  48        5PX        -0.93415   1.29512   0.22664  -1.29512  -3.79544
  49        5PY         0.93415  -1.29512  -1.29512   0.22664   1.81279
  50        5PZ        -0.93415   0.22664   1.29512  -1.29512  -1.81279
  51 5   H  1S         -0.01677   0.08711  -0.08711   0.08711  -0.02820
  52        2S         -3.80444   2.58484  -2.58484   2.58484  10.68428
  53        3S         -0.70965   0.81248  -0.81248   0.81248  -0.47511
  54        4PX         0.00191  -0.00263   0.00723  -0.00263   0.03294
  55        4PY        -0.00191   0.00263  -0.00263   0.00723   0.01446
  56        4PZ        -0.00191   0.00723  -0.00263   0.00263   0.01446
  57        5PX         0.93415  -1.29512   0.22664  -1.29512  -3.79544
  58        5PY        -0.93415   1.29512  -1.29512   0.22664   1.81279
  59        5PZ        -0.93415   0.22664  -1.29512   1.29512   1.81279
                          31        32        33        34        35
                        (T2)--V   (T2)--V   (E)--V    (E)--V    (T2)--V
     Eigenvalues --     0.66726   0.66726   0.73368   0.73368   0.98709
   1 1   C  1S          0.00000   0.00000  -0.00000   0.00000   0.00000
   2        2S          0.00000   0.00000   0.00000  -0.00000   0.00000
   3        3S          0.00000   0.00000   0.00000  -0.00000   0.00000
   4        4S          0.00000   0.00000   0.00000  -0.00000   0.00000
   5        5PX         0.00000   0.00000   0.00000   0.00000   0.00000
   6        5PY         0.00000   0.15353   0.00000   0.00000   0.00000
   7        5PZ         0.15353   0.00000   0.00000   0.00000  -0.79421
   8        6PX         0.00000   0.00000   0.00000   0.00000   0.00000
   9        6PY         0.00000  -6.64292   0.00000   0.00000   0.00000
  10        6PZ        -6.64292   0.00000   0.00000   0.00000   2.32966
  11        7PX         0.00000   0.00000   0.00000   0.00000   0.00000
  12        7PY         0.00000   0.42421   0.00000   0.00000   0.00000
  13        7PZ         0.42421   0.00000   0.00000   0.00000   0.18042
  14        8D 0        0.00000   0.00000  -0.02614   0.00960   0.00000
  15        8D+1        0.00000   0.00914   0.00000   0.00000   0.00000
  16        8D-1        0.00000   0.00000   0.00000   0.00000   0.00000
  17        8D+2        0.00000   0.00000  -0.00960  -0.02614   0.00000
  18        8D-2        0.00914   0.00000   0.00000   0.00000   0.37398
  19        9D 0        0.00000   0.00000   3.75964  -1.38017   0.00000
  20        9D+1        0.00000  -2.61153   0.00000   0.00000   0.00000
  21        9D-1        0.00000   0.00000   0.00000   0.00000   0.00000
  22        9D+2        0.00000   0.00000   1.38017   3.75964   0.00000
  23        9D-2       -2.61153   0.00000   0.00000   0.00000  -1.22119
  24 2   H  1S         -0.02820  -0.02820  -0.00000   0.00000   0.26977
  25        2S         10.68428  10.68428  -0.00000   0.00000  -0.29459
  26        3S         -0.47511  -0.47511  -0.00000   0.00000   0.18237
  27        4PX        -0.01446  -0.01446  -0.00140   0.00807   0.14150
  28        4PY        -0.01446   0.03294  -0.00629  -0.00525   0.14150
  29        4PZ         0.03294  -0.01446   0.00769  -0.00282   0.05111
  30        5PX        -1.81279  -1.81279   0.26468  -1.52568   0.21055
  31        5PY        -1.81279  -3.79544   1.18894   0.99206   0.21055
  32        5PZ        -3.79544  -1.81279  -1.45362   0.53362  -0.68008
  33 3   H  1S         -0.02820   0.02820  -0.00000   0.00000   0.26977
  34        2S         10.68428 -10.68428  -0.00000   0.00000  -0.29459
  35        3S         -0.47511   0.47511  -0.00000   0.00000   0.18237
  36        4PX         0.01446  -0.01446   0.00140  -0.00807  -0.14150
  37        4PY         0.01446   0.03294   0.00629   0.00525  -0.14150
  38        4PZ         0.03294   0.01446   0.00769  -0.00282   0.05111
  39        5PX         1.81279  -1.81279  -0.26468   1.52568  -0.21055
  40        5PY         1.81279  -3.79544  -1.18894  -0.99206  -0.21055
  41        5PZ        -3.79544   1.81279  -1.45362   0.53362  -0.68008
  42 4   H  1S          0.02820  -0.02820  -0.00000   0.00000  -0.26977
  43        2S        -10.68428  10.68428  -0.00000   0.00000   0.29459
  44        3S          0.47511  -0.47511  -0.00000   0.00000  -0.18237
  45        4PX        -0.01446   0.01446   0.00140  -0.00807   0.14150
  46        4PY         0.01446   0.03294  -0.00629  -0.00525  -0.14150
  47        4PZ         0.03294   0.01446  -0.00769   0.00282   0.05111
  48        5PX        -1.81279   1.81279  -0.26468   1.52568   0.21055
  49        5PY         1.81279  -3.79544   1.18894   0.99206  -0.21055
  50        5PZ        -3.79544   1.81279   1.45362  -0.53362  -0.68008
  51 5   H  1S          0.02820   0.02820  -0.00000   0.00000  -0.26977
  52        2S        -10.68428 -10.68428  -0.00000   0.00000   0.29459
  53        3S          0.47511   0.47511  -0.00000   0.00000  -0.18237
  54        4PX         0.01446   0.01446  -0.00140   0.00807  -0.14150
  55        4PY        -0.01446   0.03294   0.00629   0.00525   0.14150
  56        4PZ         0.03294  -0.01446  -0.00769   0.00282   0.05111
  57        5PX         1.81279   1.81279   0.26468  -1.52568  -0.21055
  58        5PY        -1.81279  -3.79544  -1.18894  -0.99206   0.21055
  59        5PZ        -3.79544  -1.81279   1.45362  -0.53362  -0.68008
                          36        37        38        39        40
                        (T2)--V   (T2)--V   (A1)--V   (T2)--V   (T2)--V
     Eigenvalues --     0.98709   0.98709   1.12478   1.34440   1.34440
   1 1   C  1S          0.00000   0.00000   0.05968   0.00000   0.00000
   2        2S          0.00000   0.00000  -0.69608   0.00000   0.00000
   3        3S          0.00000   0.00000   2.49813   0.00000   0.00000
   4        4S          0.00000   0.00000   4.75493   0.00000   0.00000
   5        5PX         0.00000  -0.79421   0.00000  -0.62926   0.00000
   6        5PY        -0.79421   0.00000   0.00000   0.00000   0.00000
   7        5PZ         0.00000   0.00000   0.00000   0.00000  -0.62926
   8        6PX         0.00000   2.32966   0.00000   7.70699   0.00000
   9        6PY         2.32966   0.00000   0.00000   0.00000   0.00000
  10        6PZ         0.00000   0.00000   0.00000   0.00000   7.70699
  11        7PX         0.00000   0.18042   0.00000   1.60659   0.00000
  12        7PY         0.18042   0.00000   0.00000   0.00000   0.00000
  13        7PZ         0.00000   0.00000   0.00000   0.00000   1.60659
  14        8D 0        0.00000   0.00000   0.00000   0.00000   0.00000
  15        8D+1        0.37398   0.00000   0.00000   0.00000   0.00000
  16        8D-1        0.00000   0.37398   0.00000  -0.40597   0.00000
  17        8D+2        0.00000   0.00000   0.00000   0.00000   0.00000
  18        8D-2        0.00000   0.00000   0.00000   0.00000  -0.40597
  19        9D 0        0.00000   0.00000   0.00000   0.00000   0.00000
  20        9D+1       -1.22119   0.00000   0.00000   0.00000   0.00000
  21        9D-1        0.00000  -1.22119   0.00000   2.27271   0.00000
  22        9D+2        0.00000   0.00000  -0.00000   0.00000   0.00000
  23        9D-2        0.00000   0.00000   0.00000   0.00000   2.27271
  24 2   H  1S          0.26977   0.26977   0.70047  -0.59982  -0.59982
  25        2S         -0.29459  -0.29459  -1.99955  -6.31800  -6.31800
  26        3S          0.18237   0.18237  -0.43172  -0.82986  -0.82986
  27        4PX         0.14150   0.05111   0.10829   0.10638  -0.02014
  28        4PY         0.05111   0.14150   0.10829  -0.02014  -0.02014
  29        4PZ         0.14150   0.14150   0.10829  -0.02014   0.10638
  30        5PX         0.21055  -0.68008  -0.01299   0.80234   1.02402
  31        5PY        -0.68008   0.21055  -0.01299   1.02402   1.02402
  32        5PZ         0.21055   0.21055  -0.01299   1.02402   0.80234
  33 3   H  1S         -0.26977  -0.26977   0.70047   0.59982  -0.59982
  34        2S          0.29459   0.29459  -1.99955   6.31800  -6.31800
  35        3S         -0.18237  -0.18237  -0.43172   0.82986  -0.82986
  36        4PX         0.14150   0.05111  -0.10829   0.10638   0.02014
  37        4PY         0.05111   0.14150  -0.10829  -0.02014   0.02014
  38        4PZ        -0.14150  -0.14150   0.10829   0.02014   0.10638
  39        5PX         0.21055  -0.68008   0.01299   0.80234  -1.02402
  40        5PY        -0.68008   0.21055   0.01299   1.02402  -1.02402
  41        5PZ        -0.21055  -0.21055  -0.01299  -1.02402   0.80234
  42 4   H  1S          0.26977  -0.26977   0.70047   0.59982   0.59982
  43        2S         -0.29459   0.29459  -1.99955   6.31800   6.31800
  44        3S          0.18237  -0.18237  -0.43172   0.82986   0.82986
  45        4PX        -0.14150   0.05111  -0.10829   0.10638  -0.02014
  46        4PY         0.05111  -0.14150   0.10829   0.02014   0.02014
  47        4PZ        -0.14150   0.14150  -0.10829  -0.02014   0.10638
  48        5PX        -0.21055  -0.68008   0.01299   0.80234   1.02402
  49        5PY        -0.68008  -0.21055  -0.01299  -1.02402  -1.02402
  50        5PZ        -0.21055   0.21055   0.01299   1.02402   0.80234
  51 5   H  1S         -0.26977   0.26977   0.70047  -0.59982   0.59982
  52        2S          0.29459  -0.29459  -1.99955  -6.31800   6.31800
  53        3S         -0.18237   0.18237  -0.43172  -0.82986   0.82986
  54        4PX        -0.14150   0.05111   0.10829   0.10638   0.02014
  55        4PY         0.05111  -0.14150  -0.10829   0.02014  -0.02014
  56        4PZ         0.14150  -0.14150  -0.10829   0.02014   0.10638
  57        5PX        -0.21055  -0.68008  -0.01299   0.80234  -1.02402
  58        5PY        -0.68008  -0.21055   0.01299  -1.02402   1.02402
  59        5PZ         0.21055  -0.21055   0.01299  -1.02402   0.80234
                          41        42        43        44        45
                        (T2)--V   (E)--V    (E)--V    (T1)--V   (T1)--V
     Eigenvalues --     1.34440   1.74061   1.74061   1.89015   1.89015
   1 1   C  1S          0.00000   0.00000   0.00000   0.00000   0.00000
   2        2S          0.00000   0.00000   0.00000   0.00000   0.00000
   3        3S          0.00000  -0.00000  -0.00000   0.00000   0.00000
   4        4S          0.00000  -0.00000   0.00000   0.00000   0.00000
   5        5PX         0.00000   0.00000   0.00000   0.00000   0.00000
   6        5PY        -0.62926   0.00000   0.00000  -0.00000   0.00000
   7        5PZ         0.00000   0.00000   0.00000   0.00000   0.00000
   8        6PX         0.00000   0.00000   0.00000   0.00000   0.00000
   9        6PY         7.70699   0.00000   0.00000   0.00000   0.00000
  10        6PZ         0.00000   0.00000   0.00000   0.00000  -0.00000
  11        7PX         0.00000   0.00000   0.00000   0.00000   0.00000
  12        7PY         1.60659   0.00000   0.00000   0.00000   0.00000
  13        7PZ         0.00000   0.00000   0.00000   0.00000  -0.00000
  14        8D 0        0.00000  -0.91149   0.04241   0.00000   0.00000
  15        8D+1       -0.40597   0.00000   0.00000  -0.00000   0.00000
  16        8D-1        0.00000   0.00000   0.00000   0.00000   0.00000
  17        8D+2        0.00000  -0.04241  -0.91149   0.00000   0.00000
  18        8D-2        0.00000   0.00000   0.00000   0.00000   0.00000
  19        9D 0        0.00000   3.07888  -0.14326   0.00000   0.00000
  20        9D+1        2.27271   0.00000   0.00000   0.00000   0.00000
  21        9D-1        0.00000   0.00000   0.00000   0.00000   0.00000
  22        9D+2        0.00000   0.14326   3.07888   0.00000   0.00000
  23        9D-2        0.00000   0.00000   0.00000   0.00000  -0.00000
  24 2   H  1S         -0.59982   0.00000   0.00000   0.00000   0.00000
  25        2S         -6.31800   0.00000   0.00000  -0.00000   0.00000
  26        3S         -0.82986  -0.00000  -0.00000  -0.00000   0.00000
  27        4PX        -0.02014   0.11524  -0.22293   0.40903   0.40903
  28        4PY         0.10638   0.13545   0.21127   0.00000  -0.40903
  29        4PZ        -0.02014  -0.25069   0.01166  -0.40903  -0.00000
  30        5PX         1.02402   0.44120  -0.85349  -0.34847  -0.34847
  31        5PY         0.80234   0.51854   0.80883   0.00000   0.34847
  32        5PZ         1.02402  -0.95974   0.04466   0.34847  -0.00000
  33 3   H  1S          0.59982   0.00000   0.00000  -0.00000   0.00000
  34        2S          6.31800   0.00000   0.00000   0.00000   0.00000
  35        3S          0.82986  -0.00000  -0.00000   0.00000   0.00000
  36        4PX        -0.02014  -0.11524   0.22293   0.40903  -0.40903
  37        4PY         0.10638  -0.13545  -0.21127   0.00000   0.40903
  38        4PZ         0.02014  -0.25069   0.01166   0.40903  -0.00000
  39        5PX         1.02402  -0.44120   0.85349  -0.34847   0.34847
  40        5PY         0.80234  -0.51854  -0.80883   0.00000  -0.34847
  41        5PZ        -1.02402  -0.95974   0.04466  -0.34847  -0.00000
  42 4   H  1S         -0.59982   0.00000   0.00000   0.00000  -0.00000
  43        2S         -6.31800   0.00000   0.00000  -0.00000  -0.00000
  44        3S         -0.82986  -0.00000  -0.00000  -0.00000  -0.00000
  45        4PX         0.02014  -0.11524   0.22293  -0.40903   0.40903
  46        4PY         0.10638   0.13545   0.21127   0.00000   0.40903
  47        4PZ         0.02014   0.25069  -0.01166   0.40903  -0.00000
  48        5PX        -1.02402  -0.44120   0.85349   0.34847  -0.34847
  49        5PY         0.80234   0.51854   0.80883   0.00000  -0.34847
  50        5PZ        -1.02402   0.95974  -0.04466  -0.34847  -0.00000
  51 5   H  1S          0.59982   0.00000   0.00000  -0.00000  -0.00000
  52        2S          6.31800   0.00000   0.00000   0.00000  -0.00000
  53        3S          0.82986  -0.00000  -0.00000   0.00000  -0.00000
  54        4PX         0.02014   0.11524  -0.22293  -0.40903  -0.40903
  55        4PY         0.10638  -0.13545  -0.21127   0.00000  -0.40903
  56        4PZ        -0.02014   0.25069  -0.01166  -0.40903  -0.00000
  57        5PX        -1.02402   0.44120  -0.85349   0.34847   0.34847
  58        5PY         0.80234  -0.51854  -0.80883   0.00000   0.34847
  59        5PZ         1.02402   0.95974  -0.04466   0.34847  -0.00000
                          46        47        48        49        50
                        (T1)--V   (A1)--V   (T2)--V   (T2)--V   (T2)--V
     Eigenvalues --     1.89015   1.98564   2.21061   2.21061   2.21061
   1 1   C  1S          0.00000  -0.27440   0.00000   0.00000   0.00000
   2        2S          0.00000  -3.01393   0.00000   0.00000   0.00000
   3        3S          0.00000  19.06959   0.00000   0.00000   0.00000
   4        4S          0.00000   5.79980   0.00000   0.00000   0.00000
   5        5PX        -0.00000   0.00000  -0.46611   0.00000   0.00000
   6        5PY         0.00000   0.00000   0.00000   0.00000  -0.46611
   7        5PZ         0.00000   0.00000   0.00000  -0.46611   0.00000
   8        6PX        -0.00000   0.00000   7.51940   0.00000   0.00000
   9        6PY         0.00000   0.00000   0.00000   0.00000   7.51940
  10        6PZ         0.00000   0.00000   0.00000   7.51940   0.00000
  11        7PX        -0.00000   0.00000   0.47958   0.00000   0.00000
  12        7PY         0.00000   0.00000   0.00000   0.00000   0.47958
  13        7PZ         0.00000   0.00000   0.00000   0.47958   0.00000
  14        8D 0        0.00000  -0.00000   0.00000   0.00000   0.00000
  15        8D+1        0.00000   0.00000   0.00000   0.00000   0.38593
  16        8D-1        0.00000   0.00000   0.38593   0.00000   0.00000
  17        8D+2        0.00000  -0.00000   0.00000   0.00000   0.00000
  18        8D-2        0.00000   0.00000   0.00000   0.38593   0.00000
  19        9D 0        0.00000   0.00000   0.00000   0.00000   0.00000
  20        9D+1        0.00000   0.00000   0.00000   0.00000   1.44439
  21        9D-1       -0.00000   0.00000   1.44439   0.00000   0.00000
  22        9D+2        0.00000   0.00000   0.00000   0.00000   0.00000
  23        9D-2        0.00000   0.00000   0.00000   1.44439   0.00000
  24 2   H  1S         -0.00000  -0.68126  -0.73883  -0.73883  -0.73883
  25        2S          0.00000  -4.89417  -6.37210  -6.37210  -6.37210
  26        3S          0.00000  -0.55654  -0.16293  -0.16293  -0.16293
  27        4PX        -0.00000   0.06980  -0.47491  -0.01048  -0.01048
  28        4PY         0.40903   0.06980  -0.01048  -0.01048  -0.47491
  29        4PZ        -0.40903   0.06980  -0.01048  -0.47491  -0.01048
  30        5PX        -0.00000   0.94282   1.38111   1.23171   1.23171
  31        5PY        -0.34847   0.94282   1.23171   1.23171   1.38111
  32        5PZ         0.34847   0.94282   1.23171   1.38111   1.23171
  33 3   H  1S          0.00000  -0.68126   0.73883  -0.73883   0.73883
  34        2S         -0.00000  -4.89417   6.37210  -6.37210   6.37210
  35        3S         -0.00000  -0.55654   0.16293  -0.16293   0.16293
  36        4PX        -0.00000  -0.06980  -0.47491   0.01048  -0.01048
  37        4PY         0.40903  -0.06980  -0.01048   0.01048  -0.47491
  38        4PZ         0.40903   0.06980   0.01048  -0.47491   0.01048
  39        5PX        -0.00000  -0.94282   1.38111  -1.23171   1.23171
  40        5PY        -0.34847  -0.94282   1.23171  -1.23171   1.38111
  41        5PZ        -0.34847   0.94282  -1.23171   1.38111  -1.23171
  42 4   H  1S          0.00000  -0.68126   0.73883   0.73883  -0.73883
  43        2S         -0.00000  -4.89417   6.37210   6.37210  -6.37210
  44        3S         -0.00000  -0.55654   0.16293   0.16293  -0.16293
  45        4PX        -0.00000  -0.06980  -0.47491  -0.01048   0.01048
  46        4PY        -0.40903   0.06980   0.01048   0.01048  -0.47491
  47        4PZ        -0.40903  -0.06980  -0.01048  -0.47491   0.01048
  48        5PX        -0.00000  -0.94282   1.38111   1.23171  -1.23171
  49        5PY         0.34847   0.94282  -1.23171  -1.23171   1.38111
  50        5PZ         0.34847  -0.94282   1.23171   1.38111  -1.23171
  51 5   H  1S         -0.00000  -0.68126  -0.73883   0.73883   0.73883
  52        2S          0.00000  -4.89417  -6.37210   6.37210   6.37210
  53        3S          0.00000  -0.55654  -0.16293   0.16293   0.16293
  54        4PX        -0.00000   0.06980  -0.47491   0.01048   0.01048
  55        4PY        -0.40903  -0.06980   0.01048  -0.01048  -0.47491
  56        4PZ         0.40903  -0.06980   0.01048  -0.47491  -0.01048
  57        5PX        -0.00000   0.94282   1.38111  -1.23171  -1.23171
  58        5PY         0.34847  -0.94282  -1.23171   1.23171   1.38111
  59        5PZ        -0.34847  -0.94282  -1.23171   1.38111   1.23171
                          51        52        53        54        55
                        (T2)--V   (T2)--V   (T2)--V   (E)--V    (E)--V
     Eigenvalues --     2.28977   2.28977   2.28977   2.63401   2.63401
   1 1   C  1S          0.00000   0.00000   0.00000  -0.00000  -0.00000
   2        2S          0.00000   0.00000   0.00000  -0.00000  -0.00000
   3        3S          0.00000   0.00000   0.00000   0.00000   0.00000
   4        4S          0.00000   0.00000   0.00000   0.00000   0.00000
   5        5PX         0.00000  -0.51149   0.00000   0.00000   0.00000
   6        5PY         0.00000   0.00000  -0.51149   0.00000   0.00000
   7        5PZ        -0.51149   0.00000   0.00000   0.00000   0.00000
   8        6PX         0.00000   0.09243   0.00000   0.00000   0.00000
   9        6PY         0.00000   0.00000   0.09243   0.00000   0.00000
  10        6PZ         0.09243   0.00000   0.00000   0.00000   0.00000
  11        7PX         0.00000   0.50776   0.00000   0.00000   0.00000
  12        7PY         0.00000   0.00000   0.50776   0.00000   0.00000
  13        7PZ         0.50776   0.00000   0.00000   0.00000   0.00000
  14        8D 0        0.00000   0.00000   0.00000   1.20931   0.23164
  15        8D+1        0.00000   0.00000   0.79008   0.00000   0.00000
  16        8D-1        0.00000   0.79008   0.00000   0.00000   0.00000
  17        8D+2        0.00000   0.00000   0.00000  -0.23164   1.20931
  18        8D-2        0.79008   0.00000   0.00000   0.00000   0.00000
  19        9D 0        0.00000   0.00000   0.00000   0.13265   0.02541
  20        9D+1        0.00000   0.00000  -0.46046   0.00000   0.00000
  21        9D-1        0.00000  -0.46046   0.00000   0.00000   0.00000
  22        9D+2        0.00000   0.00000   0.00000  -0.02541   0.13265
  23        9D-2       -0.46046   0.00000   0.00000   0.00000   0.00000
  24 2   H  1S         -0.08805  -0.08805  -0.08805  -0.00000  -0.00000
  25        2S          0.49274   0.49274   0.49274  -0.00000  -0.00000
  26        3S         -0.48403  -0.48403  -0.48403  -0.00000  -0.00000
  27        4PX        -0.34570   0.32607  -0.34570   0.38252  -0.44247
  28        4PY        -0.34570  -0.34570   0.32607   0.19193   0.55250
  29        4PZ         0.32607  -0.34570  -0.34570  -0.57445  -0.11004
  30        5PX         0.14785  -0.34159   0.14785  -0.04012   0.04640
  31        5PY         0.14785   0.14785  -0.34159  -0.02013  -0.05794
  32        5PZ        -0.34159   0.14785   0.14785   0.06024   0.01154
  33 3   H  1S         -0.08805   0.08805   0.08805  -0.00000  -0.00000
  34        2S          0.49274  -0.49274  -0.49274  -0.00000  -0.00000
  35        3S         -0.48403   0.48403   0.48403  -0.00000  -0.00000
  36        4PX         0.34570   0.32607  -0.34570  -0.38252   0.44247
  37        4PY         0.34570  -0.34570   0.32607  -0.19193  -0.55250
  38        4PZ         0.32607   0.34570   0.34570  -0.57445  -0.11004
  39        5PX        -0.14785  -0.34159   0.14785   0.04012  -0.04640
  40        5PY        -0.14785   0.14785  -0.34159   0.02013   0.05794
  41        5PZ        -0.34159  -0.14785  -0.14785   0.06024   0.01154
  42 4   H  1S          0.08805   0.08805  -0.08805  -0.00000  -0.00000
  43        2S         -0.49274  -0.49274   0.49274  -0.00000  -0.00000
  44        3S          0.48403   0.48403  -0.48403  -0.00000  -0.00000
  45        4PX        -0.34570   0.32607   0.34570  -0.38252   0.44247
  46        4PY         0.34570   0.34570   0.32607   0.19193   0.55250
  47        4PZ         0.32607  -0.34570   0.34570   0.57445   0.11004
  48        5PX         0.14785  -0.34159  -0.14785   0.04012  -0.04640
  49        5PY        -0.14785  -0.14785  -0.34159  -0.02013  -0.05794
  50        5PZ        -0.34159   0.14785  -0.14785  -0.06024  -0.01154
  51 5   H  1S          0.08805  -0.08805   0.08805  -0.00000  -0.00000
  52        2S         -0.49274   0.49274  -0.49274  -0.00000  -0.00000
  53        3S          0.48403  -0.48403   0.48403  -0.00000  -0.00000
  54        4PX         0.34570   0.32607   0.34570   0.38252  -0.44247
  55        4PY        -0.34570   0.34570   0.32607  -0.19193  -0.55250
  56        4PZ         0.32607   0.34570  -0.34570   0.57445   0.11004
  57        5PX        -0.14785  -0.34159  -0.14785  -0.04012   0.04640
  58        5PY         0.14785  -0.14785  -0.34159   0.02013   0.05794
  59        5PZ        -0.34159  -0.14785   0.14785  -0.06024  -0.01154
                          56        57        58        59
                        (A1)--V   (T2)--V   (T2)--V   (T2)--V
     Eigenvalues --     2.82818   2.92712   2.92712   2.92712
   1 1   C  1S         -0.06183   0.00000   0.00000   0.00000
   2        2S          1.38962   0.00000   0.00000   0.00000
   3        3S          2.69574   0.00000   0.00000   0.00000
   4        4S          1.69156   0.00000   0.00000   0.00000
   5        5PX         0.00000   0.00000   1.22805   0.00000
   6        5PY         0.00000   0.00000   0.00000   1.22805
   7        5PZ         0.00000   1.22805   0.00000   0.00000
   8        6PX         0.00000   0.00000   2.68559   0.00000
   9        6PY         0.00000   0.00000   0.00000   2.68559
  10        6PZ         0.00000   2.68559   0.00000   0.00000
  11        7PX         0.00000   0.00000   0.37251   0.00000
  12        7PY         0.00000   0.00000   0.00000   0.37251
  13        7PZ         0.00000   0.37251   0.00000   0.00000
  14        8D 0        0.00000   0.00000   0.00000   0.00000
  15        8D+1        0.00000   0.00000   0.00000   1.66649
  16        8D-1        0.00000   0.00000   1.66649   0.00000
  17        8D+2        0.00000   0.00000   0.00000   0.00000
  18        8D-2        0.00000   1.66649   0.00000   0.00000
  19        9D 0        0.00000   0.00000   0.00000   0.00000
  20        9D+1        0.00000   0.00000   0.00000  -0.27844
  21        9D-1        0.00000   0.00000  -0.27844   0.00000
  22        9D+2        0.00000   0.00000   0.00000   0.00000
  23        9D-2        0.00000  -0.27844   0.00000   0.00000
  24 2   H  1S         -0.58960  -1.08750  -1.08750  -1.08750
  25        2S         -0.97061  -0.89281  -0.89281  -0.89281
  26        3S         -0.13539  -0.11079  -0.11079  -0.11079
  27        4PX         0.49434   0.44396   0.54559   0.44396
  28        4PY         0.49434   0.44396   0.44396   0.54559
  29        4PZ         0.49434   0.54559   0.44396   0.44396
  30        5PX        -0.00243   0.25043  -0.32098   0.25043
  31        5PY        -0.00243   0.25043   0.25043  -0.32098
  32        5PZ        -0.00243  -0.32098   0.25043   0.25043
  33 3   H  1S         -0.58960  -1.08750   1.08750   1.08750
  34        2S         -0.97061  -0.89281   0.89281   0.89281
  35        3S         -0.13539  -0.11079   0.11079   0.11079
  36        4PX        -0.49434  -0.44396   0.54559   0.44396
  37        4PY        -0.49434  -0.44396   0.44396   0.54559
  38        4PZ         0.49434   0.54559  -0.44396  -0.44396
  39        5PX         0.00243  -0.25043  -0.32098   0.25043
  40        5PY         0.00243  -0.25043   0.25043  -0.32098
  41        5PZ        -0.00243  -0.32098  -0.25043  -0.25043
  42 4   H  1S         -0.58960   1.08750   1.08750  -1.08750
  43        2S         -0.97061   0.89281   0.89281  -0.89281
[...]
 - Thermochemistry -
 -------------------
 Temperature   298.150 Kelvin.  Pressure   1.00000 Atm.
 Atom     1 has atomic number  6 and mass  12.00000
 Atom     2 has atomic number  1 and mass   1.00783
 Atom     3 has atomic number  1 and mass   1.00783
 Atom     4 has atomic number  1 and mass   1.00783
 Atom     5 has atomic number  1 and mass   1.00783
 Molecular mass:    16.03130 amu.
 Principal axes and moments of inertia in atomic units:
                           1         2         3
     Eigenvalues --    11.58286  11.58286  11.58286
           X            0.76241   0.62999  -0.14781
           Y            0.04371   0.17777   0.98310
           Z           -0.64562   0.75599  -0.10799
 This molecule is a spherical top.
 Rotational symmetry number 12.
 Rotational temperatures (Kelvin)      7.47776     7.47776     7.47776
 Rotational constants (GHZ):         155.81141   155.81141   155.81141
 Zero-point vibrational energy     118099.6 (Joules/Mol)
                                   28.22649 (Kcal/Mol)
 Vibrational temperatures:   1905.95  1905.95  1905.95  2231.60  2231.60
          (Kelvin)           4402.06  4608.37  4608.37  4608.37
 
 Zero-point correction=                           0.044982 (Hartree/Particle)
 Thermal correction to Energy=                    0.047853
 Thermal correction to Enthalpy=                  0.048797
 Thermal correction to Gibbs Free Energy=         0.027644
 Sum of electronic and zero-point Energies=            -40.322744
 Sum of electronic and thermal Energies=               -40.319873
 Sum of electronic and thermal Enthalpies=             -40.318929
 Sum of electronic and thermal Free Energies=          -40.340082
 
                     E (Thermal)             CV                S
                      KCal/Mol        Cal/Mol-Kelvin    Cal/Mol-Kelvin
 Total                   30.028              6.496             44.521
 Electronic               0.000              0.000              0.000
 Translational            0.889              2.981             34.261
 Rotational               0.889              2.981             10.166
 Vibrational             28.251              0.535              0.093
                       Q            Log10(Q)             Ln(Q)
 Total Bot       0.192679D-12        -12.715167        -29.277753
 Total V=0       0.943992D+08          7.974968         18.363043
 Vib (Bot)       0.205370D-20        -20.687464        -47.634645
 Vib (V=0)       0.100617D+01          0.002671          0.006150
 Electronic      0.100000D+01          0.000000          0.000000
 Translational   0.252295D+07          6.401908         14.740939
 Rotational      0.371868D+02          1.570389          3.615954
 
                                       methane with imposed symmetry and aug-cc-p
 VDZ basis set
                                                             IR Spectrum
 
      3    3                                                           1        1                                                    
      2    0                                                           5        3                                                    
      0    6                                                           5        2                                                    
      3    0                                                           1        5                                                    
 
      X                                                                         X                                                    
      X                                                                         X                                                    
      X                                                                         X                                                    
      X                                                                         X                                                    
      X                                                                         X                                                    
      X                                                                         X                                                    
      X                                                                         X                                                    
      X                                                                         X                                                    
      X                                                                         X                                                    
      X                                                                                                                              
      X                                                                                                                              
      X                                                                                                                              
      X                                                                                                                              
      X                                                                                                                              
      X                                                                                                                              
      X                                                                                                                              
      X                                                                                                                              
      X                                                                                                                              
      X                                                                                                                              
      X                                                                                                                              
 
 ***** Axes restored to original set *****
 -------------------------------------------------------------------
 Center     Atomic                   Forces (Hartrees/Bohr)
 Number     Number              X              Y              Z
 -------------------------------------------------------------------
      1        6           0.000000000   -0.000000000   -0.000000000
      2        1          -0.000000000   -0.000000000   -0.000279957
      3        1          -0.000263946    0.000000000    0.000093319
      4        1           0.000131973    0.000228584    0.000093319
      5        1           0.000131973   -0.000228584    0.000093319
 -------------------------------------------------------------------
 Cartesian Forces:  Max     0.000279957 RMS     0.000144569
 Force constants in Cartesian coordinates: 
                1             2             3             4             5 
      1  0.557998D+00
      2  0.000000D+00  0.557998D+00
      3  0.000000D+00  0.000000D+00  0.557998D+00
      4 -0.437928D-01  0.000000D+00  0.000000D+00  0.439909D-01
      5  0.000000D+00 -0.437928D-01  0.000000D+00  0.000000D+00  0.439909D-01
      6  0.000000D+00  0.000000D+00 -0.330913D+00  0.000000D+00  0.000000D+00
      7 -0.299011D+00  0.000000D+00  0.902331D-01  0.182138D-02  0.000000D+00
      8  0.000000D+00 -0.437928D-01  0.000000D+00  0.000000D+00 -0.195347D-02
      9  0.902331D-01  0.000000D+00 -0.756950D-01  0.310576D-01  0.000000D+00
     10 -0.107597D+00 -0.110513D+00 -0.451166D-01 -0.100976D-02  0.163456D-02
     11 -0.110513D+00 -0.235206D+00 -0.781442D-01  0.163456D-02  0.877665D-03
     12 -0.451166D-01 -0.781442D-01 -0.756950D-01 -0.155288D-01 -0.268967D-01
     13 -0.107597D+00  0.110513D+00 -0.451166D-01 -0.100976D-02 -0.163456D-02
     14  0.110513D+00 -0.235206D+00  0.781442D-01 -0.163456D-02  0.877666D-03
     15 -0.451166D-01  0.781442D-01 -0.756950D-01 -0.155288D-01  0.268967D-01
                6             7             8             9            10 
      6  0.355760D+00
      7 -0.247981D-02  0.321119D+00
      8  0.000000D+00  0.000000D+00  0.439909D-01
      9 -0.828241D-02 -0.979796D-01  0.000000D+00  0.786320D-01
     10  0.123991D-02 -0.119649D-01 -0.248136D-01 -0.116556D-01  0.113273D+00
     11  0.214758D-02  0.256961D-02  0.877666D-03  0.825216D-03  0.120000D+00
     12 -0.828241D-02  0.511314D-02  0.105066D-01  0.267274D-02  0.489898D-01
     13  0.123991D-02 -0.119649D-01  0.248136D-01 -0.116556D-01  0.729895D-02
     14 -0.214758D-02 -0.256961D-02  0.877666D-03 -0.825216D-03  0.136916D-01
     15 -0.828241D-02  0.511314D-02 -0.105066D-01  0.267274D-02  0.654245D-02
               11            12            13            14            15 
     11  0.251837D+00
     12  0.848528D-01  0.786320D-01
     13 -0.136916D-01  0.654245D-02  0.113273D+00
     14 -0.183862D-01  0.968143D-02 -0.120000D+00  0.251837D+00
     15 -0.968143D-02  0.267274D-02  0.489898D-01 -0.848528D-01  0.786320D-01
 Force constants in internal coordinates: 
                1             2             3             4             5 
      1  0.355760D+00
      2  0.422813D-03  0.355760D+00
      3  0.422813D-03  0.422813D-03  0.355760D+00
      4  0.422813D-03  0.422814D-03  0.422814D-03  0.355760D+00
      5  0.197658D-02  0.197658D-02 -0.124111D-02 -0.271205D-02  0.194690D-01
      6  0.309777D-02 -0.799425D-03  0.344752D-02 -0.574587D-02 -0.870250D-02
      7  0.605365D-02 -0.485850D-02 -0.537813D-02  0.418299D-02 -0.129269D-01
      8 -0.799425D-03  0.309777D-02  0.344752D-02 -0.574587D-02 -0.870250D-02
      9 -0.485850D-02  0.605364D-02 -0.537813D-02  0.418299D-02 -0.129269D-01
     10 -0.547006D-02 -0.547006D-02  0.510233D-02  0.583780D-02  0.237897D-01
     11 -0.382825D-02 -0.382825D-02 -0.270229D-02  0.103588D-01 -0.131862D-01
     12  0.315267D-02  0.315267D-02 -0.810688D-02  0.180153D-02  0.801245D-02
     13 -0.415135D-02  0.730402D-02 -0.405344D-02  0.900764D-03  0.400623D-02
     14 -0.730402D-02  0.415135D-02  0.405344D-02 -0.900764D-03 -0.400623D-02
                6             7             8             9            10 
      6  0.366404D-01
      7 -0.223038D-01  0.715850D-01
      8 -0.215777D-02  0.247179D-01  0.366404D-01
      9  0.247179D-01 -0.348174D-01 -0.223038D-01  0.715850D-01
     10 -0.281943D-01 -0.262548D-01 -0.281943D-01 -0.262548D-01  0.851086D-01
     11 -0.104579D-01  0.143537D-01 -0.104579D-01  0.143537D-01  0.539452D-02
     12 -0.917998D-02  0.668334D-02 -0.917998D-02  0.668334D-02 -0.301916D-02
     13 -0.139515D-01 -0.442469D-03  0.477156D-02  0.712581D-02 -0.150958D-02
     14 -0.477156D-02 -0.712581D-02  0.139515D-01  0.442469D-03  0.150958D-02
               11            12            13            14 
     11  0.289580D-01
     12  0.142993D-02  0.179986D-01
     13  0.714964D-03  0.899930D-02  0.182825D-01
     14 -0.714964D-03 -0.899930D-02  0.928316D-02  0.182825D-01
 Leave Link  716 at Sun Aug 18 00:52:35 2024, MaxMem=   13107200 cpu:       0.0
 (Enter /programs/64bit/g09/g09-gfortran/bin/l103.exe)

 GradGradGradGradGradGradGradGradGradGradGradGradGradGradGradGradGradGrad
 Berny optimization.
 Internal  Forces:  Max     0.000279957 RMS     0.000149643
 Search for a local minimum.
 Step number   1 out of a maximum of    2
 All quantities printed in internal units (Hartrees-Bohrs-Radians)
 Second derivative matrix not updated -- analytic derivatives used.
 The second derivative matrix:
                          R1        R2        R3        R4        A1
           R1           0.35576
           R2           0.00042   0.35576
           R3           0.00042   0.00042   0.35576
           R4           0.00042   0.00042   0.00042   0.35576
           A1           0.00198   0.00198  -0.00124  -0.00271   0.01947
           A2           0.00310  -0.00080   0.00345  -0.00575  -0.00870
           A3           0.00605  -0.00486  -0.00538   0.00418  -0.01293
           A4          -0.00080   0.00310   0.00345  -0.00575  -0.00870
           A5          -0.00486   0.00605  -0.00538   0.00418  -0.01293
           A6          -0.00547  -0.00547   0.00510   0.00584   0.02379
           D1          -0.00383  -0.00383  -0.00270   0.01036  -0.01319
           D2           0.00315   0.00315  -0.00811   0.00180   0.00801
           D3          -0.00415   0.00730  -0.00405   0.00090   0.00401
           D4          -0.00730   0.00415   0.00405  -0.00090  -0.00401
                          A2        A3        A4        A5        A6
           A2           0.03664
           A3          -0.02230   0.07158
           A4          -0.00216   0.02472   0.03664
           A5           0.02472  -0.03482  -0.02230   0.07158
           A6          -0.02819  -0.02625  -0.02819  -0.02625   0.08511
           D1          -0.01046   0.01435  -0.01046   0.01435   0.00539
           D2          -0.00918   0.00668  -0.00918   0.00668  -0.00302
           D3          -0.01395  -0.00044   0.00477   0.00713  -0.00151
           D4          -0.00477  -0.00713   0.01395   0.00044   0.00151
                          D1        D2        D3        D4
           D1           0.02896
           D2           0.00143   0.01800
           D3           0.00071   0.00900   0.01828
           D4          -0.00071  -0.00900   0.00928   0.01828
     Eigenvalues ---    0.03691   0.04156   0.06308   0.12970   0.13028
     Eigenvalues ---    0.35624   0.35626   0.35653   0.357031000.00000
     Eigenvalues --- 1000.000001000.000001000.000001000.00000
 Angle between quadratic step and forces=   0.00 degrees.
 Linear search not attempted -- first point.
 Iteration  1 RMS(Cart)=  0.00041914 RMS(Int)=  0.00000000
 Iteration  2 RMS(Cart)=  0.00000000 RMS(Int)=  0.00000000
 ClnCor:  largest displacement from symmetrization is 4.99D-12 for atom     5.
 Variable       Old X    -DE/DX   Delta X   Delta X   Delta X     New X
                                 (Linear)    (Quad)   (Total)
    R1        2.07602  -0.00028   0.00000  -0.00078  -0.00078   2.07523
    R2        2.07602  -0.00028   0.00000  -0.00078  -0.00078   2.07523
    R3        2.07602  -0.00028   0.00000  -0.00078  -0.00078   2.07523
    R4        2.07602  -0.00028   0.00000  -0.00078  -0.00078   2.07523
    A1        1.91063   0.00000   0.00000  -0.00000  -0.00000   1.91063
    A2        1.91063  -0.00000   0.00000  -0.00000   0.00000   1.91063
    A3        1.91063   0.00000   0.00000   0.00000   0.00000   1.91063
    A4        1.91063  -0.00000   0.00000   0.00000   0.00000   1.91063
    A5        1.91063  -0.00000   0.00000  -0.00000   0.00000   1.91063
    A6        1.91063   0.00000   0.00000   0.00000   0.00000   1.91063
    D1       -2.09440  -0.00000   0.00000   0.00000   0.00000  -2.09440
    D2        2.09440   0.00000   0.00000  -0.00000   0.00000   2.09440
    D3       -2.09440   0.00000   0.00000   0.00000   0.00000  -2.09440
    D4        2.09440   0.00000   0.00000   0.00000   0.00000   2.09440
         Item               Value     Threshold  Converged?
 Maximum Force            0.000280     0.000450     YES
 RMS     Force            0.000150     0.000300     YES
 Maximum Displacement     0.000784     0.001800     YES
 RMS     Displacement     0.000419     0.001200     YES
 Predicted change in Energy=-4.390456D-07
 Optimization completed.
    -- Stationary point found.
                           ----------------------------
                           !   Optimized Parameters   !
                           ! (Angstroms and Degrees)  !
 --------------------------                            --------------------------
 ! Name  Definition              Value          Derivative Info.                !
 --------------------------------------------------------------------------------
 ! R1    R(1,2)                  1.0986         -DE/DX =   -0.0003              !
 ! R2    R(1,3)                  1.0986         -DE/DX =   -0.0003              !
 ! R3    R(1,4)                  1.0986         -DE/DX =   -0.0003              !
 ! R4    R(1,5)                  1.0986         -DE/DX =   -0.0003              !
 ! A1    A(2,1,3)              109.4712         -DE/DX =    0.0                 !
 ! A2    A(2,1,4)              109.4712         -DE/DX =    0.0                 !
 ! A3    A(2,1,5)              109.4712         -DE/DX =    0.0                 !
 ! A4    A(3,1,4)              109.4712         -DE/DX =    0.0                 !
 ! A5    A(3,1,5)              109.4712         -DE/DX =    0.0                 !
 ! A6    A(4,1,5)              109.4712         -DE/DX =    0.0                 !
 ! D1    D(2,1,4,3)           -120.0            -DE/DX =    0.0                 !
 ! D2    D(2,1,5,3)            120.0            -DE/DX =    0.0                 !
 ! D3    D(2,1,5,4)           -120.0            -DE/DX =    0.0                 !
 ! D4    D(3,1,5,4)            120.0            -DE/DX =    0.0                 !
 --------------------------------------------------------------------------------
 GradGradGradGradGradGradGradGradGradGradGradGradGradGradGradGradGradGrad

 Leave Link  103 at Sun Aug 18 00:52:35 2024, MaxMem=   13107200 cpu:       0.0
 (Enter /programs/64bit/g09/g09-gfortran/bin/l9999.exe)
 1\1\GINC-MOLMOD\Freq\RMP2-FC\Aug-CC-pVDZ\C1H4\OSPITE\18-Aug-2024\0\\#P
  Geom=AllCheck Guess=TCheck SCRF=Check GenChk RMP2(FC)/Aug-CC-pVDZ Fre
 q\\methane with imposed symmetry and aug-cc-pVDZ basis set\\0,1\C,0.,0
 .,0.\H,0.,0.,1.0985808728\H,1.0357519797,0.,-0.3661936243\H,-0.5178759
 899,-0.8969875265,-0.3661936243\H,-0.5178759899,0.8969875265,-0.366193
 6243\\Version=EM64L-G09RevA.02\State=1-A1\HF=-40.1994083\MP2=-40.36772
 61\RMSD=5.748e-10\RMSF=1.446e-04\ZeroPoint=0.0449818\Thermal=0.0478526
 \Dipole=0.,0.,0.\DipoleDeriv=0.015246,0.,0.,0.,0.015246,0.,0.,0.,0.015
 246,0.0571269,0.,0.,0.,0.0571269,0.,0.,0.,-0.1256883,-0.1053755,0.,0.0
 574533,0.,0.0571269,0.,0.0574533,0.,0.0368141,0.0165013,-0.0703656,-0.
 0287266,-0.0703656,-0.0647499,-0.049756,-0.0287266,-0.049756,0.0368141
 ,0.0165013,0.0703656,-0.0287266,0.0703656,-0.0647499,0.049756,-0.02872
 66,0.049756,0.0368141\Polar=16.7966572,0.,16.7966572,0.,0.,16.7966572\
 PG=TD [O(C1),4C3(H1)]\NImag=0\\0.55799799,0.,0.55799799,0.,0.,0.557997
 99,-0.04379280,0.,0.,0.04399095,0.,-0.04379280,0.,0.,0.04399094,0.,0.,
 -0.33091289,0.,0.,0.35576012,-0.29901065,0.,0.09023314,0.00182138,0.,-
 0.00247981,0.32111910,0.,-0.04379280,0.,0.,-0.00195347,0.,0.,0.0439909
 5,0.09023314,0.,-0.07569504,0.03105764,0.,-0.00828241,-0.09797960,0.,0
 .07863196,-0.10759727,-0.11051257,-0.04511657,-0.00100976,0.00163456,0
 .00123991,-0.01196491,-0.02481361,-0.01165559,0.11327298,-0.11051257,-
 0.23520619,-0.07814419,0.00163456,0.00087767,0.00214758,0.00256961,0.0
 0087767,0.00082522,0.12000001,0.25183706,-0.04511657,-0.07814419,-0.07
 569504,-0.01552882,-0.02689671,-0.00828241,0.00511314,0.01050665,0.002
 67274,0.04898980,0.08485282,0.07863196,-0.10759727,0.11051257,-0.04511
 657,-0.00100976,-0.00163456,0.00123991,-0.01196491,0.02481361,-0.01165
 559,0.00729895,-0.01369161,0.00654245,0.11327298,0.11051257,-0.2352061
 9,0.07814419,-0.00163456,0.00087767,-0.00214758,-0.00256961,0.00087767
 ,-0.00082522,0.01369161,-0.01838620,0.00968143,-0.12000001,0.25183706,
 -0.04511657,0.07814419,-0.07569504,-0.01552882,0.02689671,-0.00828241,
 0.00511314,-0.01050665,0.00267274,0.00654245,-0.00968143,0.00267274,0.
 04898980,-0.08485282,0.07863196\\0.,0.,0.,0.,0.,0.00027996,0.00026395,
 0.,-0.00009332,-0.00013197,-0.00022858,-0.00009332,-0.00013197,0.00022
 858,-0.00009332\\\@


 "WHERE SHALL I START, PLEASE YOUR MAJESTY?" HE ASKED.
 "BEGIN AT THE BEGINNING," THE KING SAID GRAVELY,
 "AND GO ON TILL YOU COME TO THE END: THEN STOP." 

                                      -- LEWIS CARROLL
 Job cpu time:  0 days  0 hours  0 minutes 26.6 seconds.
 File lengths (MBytes):  RWF=     65 Int=      0 D2E=      0 Chk=      1 Scr=      1
 Normal termination of Gaussian 09 at Sun Aug 18 00:52:35 2024.
