 Entering Gaussian System, Link 0=/programs/64bit/g09/g09-gfortran/bin/g09
 Input=ch4_sto-3g.com
 Output=ch4_sto-3g.log
 Initial command:
 /programs/64bit/g09/g09-gfortran/bin/l1.exe /home/ospite/Desktop/MMfP/Project6/CH4/g09/MP2/Gau-19966.inp -scrdir=/home/ospite/Desktop/MMfP/Project6/CH4/g09/MP2/
 Entering Link 1 = /programs/64bit/g09/g09-gfortran/bin/l1.exe PID=     19967.
  
 Copyright (c) 1988,1990,1992,1993,1995,1998,2003,2009, Gaussian, Inc.
                  All Rights Reserved.
  
 This is part of the Gaussian(R) 09 program.  It is based on
 the Gaussian(R) 03 system (copyright 2003, Gaussian, Inc.),
 the Gaussian(R) 98 system (copyright 1998, Gaussian, Inc.),
 the Gaussian(R) 94 system (copyright 1995, Gaussian, Inc.),
 the Gaussian 92(TM) system (copyright 1992, Gaussian, Inc.),
 the Gaussian 90(TM) system (copyright 1990, Gaussian, Inc.),
 the Gaussian 88(TM) system (copyright 1988, Gaussian, Inc.),
 the Gaussian 86(TM) system (copyright 1986, Carnegie Mellon
 University), and the Gaussian 82(TM) system (copyright 1983,
 Carnegie Mellon University). Gaussian is a federally registered
 trademark of Gaussian, Inc.
  
 This software contains proprietary and confidential information,
 including trade secrets, belonging to Gaussian, Inc.
  
 This software is provided under written license and may be
 used, copied, transmitted, or stored only in accord with that
 written license.
  
 The following legend is applicable only to US Government
 contracts under FAR:
  
                    RESTRICTED RIGHTS LEGEND
  
 Use, reproduction and disclosure by the US Government is
 subject to restrictions as set forth in subparagraphs (a)
 and (c) of the Commercial Computer Software - Restricted
 Rights clause in FAR 52.227-19.
  
 Gaussian, Inc.
 340 Quinnipiac St., Bldg. 40, Wallingford CT 06492
  
  
 ---------------------------------------------------------------
 Warning -- This program may not be used in any manner that
 competes with the business of Gaussian, Inc. or will provide
 assistance to any competitor of Gaussian, Inc.  The licensee
 of this program is prohibited from giving any competitor of
 Gaussian, Inc. access to this program.  By using this program,
 the user acknowledges that Gaussian, Inc. is engaged in the
 business of creating and licensing software in the field of
 computational chemistry and represents and warrants to the
 licensee that it is not a competitor of Gaussian, Inc. and that
 it will not use this program in any manner prohibited above.
 ---------------------------------------------------------------
  

 Cite this work as:
 Gaussian 09, Revision A.02,
 M. J. Frisch, G. W. Trucks, H. B. Schlegel, G. E. Scuseria, 
 M. A. Robb, J. R. Cheeseman, G. Scalmani, V. Barone, B. Mennucci, 
 G. A. Petersson, H. Nakatsuji, M. Caricato, X. Li, H. P. Hratchian, 
 A. F. Izmaylov, J. Bloino, G. Zheng, J. L. Sonnenberg, M. Hada, 
 M. Ehara, K. Toyota, R. Fukuda, J. Hasegawa, M. Ishida, T. Nakajima, 
 Y. Honda, O. Kitao, H. Nakai, T. Vreven, J. A. Montgomery, Jr., 
 J. E. Peralta, F. Ogliaro, M. Bearpark, J. J. Heyd, E. Brothers, 
 K. N. Kudin, V. N. Staroverov, R. Kobayashi, J. Normand, 
 K. Raghavachari, A. Rendell, J. C. Burant, S. S. Iyengar, J. Tomasi, 
 M. Cossi, N. Rega, J. M. Millam, M. Klene, J. E. Knox, J. B. Cross, 
 V. Bakken, C. Adamo, J. Jaramillo, R. Gomperts, R. E. Stratmann, 
 O. Yazyev, A. J. Austin, R. Cammi, C. Pomelli, J. W. Ochterski, 
 R. L. Martin, K. Morokuma, V. G. Zakrzewski, G. A. Voth, 
 P. Salvador, J. J. Dannenberg, S. Dapprich, A. D. Daniels, 
 O. Farkas, J. B. Foresman, J. V. Ortiz, J. Cioslowski, 
 and D. J. Fox, Gaussian, Inc., Wallingford CT, 2009.
 
 ******************************************
 Gaussian 09:  EM64L-G09RevA.02 11-Jun-2009
                18-Aug-2024 
 ******************************************
 %mem=100MB
 ---------------------------------------------------------------
 #p mp2/STO-3G opt freq symmetry=(follow,pg=Td) pop=full gfinput
 ---------------------------------------------------------------
 1/18=20,19=15,38=1/1,3;
 2/9=110,12=2,17=6,18=5,19=2314885530818462804,40=1/2;
 3/6=3,11=9,16=1,24=10,25=1,30=1,71=1/1,2,3;
 4//1;
 5/5=2,38=5/2;
 8/6=4,10=1/1;
 9/15=2,16=-3/6;
 10/5=1/2;
 6/7=3/1;
 7/12=2/1,2,3,16;
 1/18=20,19=15/3(2);
 2/9=110,15=5,19=2314885530818462804/2;
 99//99;
 2/9=110,15=5,19=2314885530818462804/2;
 3/6=3,11=9,16=1,25=1,30=1,71=1/1,2,3;
 4/5=5,16=3/1;
 5/5=2,38=5/2;
 8/6=4,10=1/1;
 9/15=2,16=-3/6;
 10/5=1/2;
 7/12=2/1,2,3,16;
 1/18=20,19=15/3(-8);
 2/9=110,15=5,19=2314885530818462804/2;
 6/7=3/1;
 99//99;
 Leave Link    1 at Sun Aug 18 00:51:24 2024, MaxMem=   13107200 cpu:       0.1
 (Enter /programs/64bit/g09/g09-gfortran/bin/l101.exe)
 --------------------------------------------------
 methane with imposed symmetry and STO-3G basis set
 --------------------------------------------------
 Symbolic Z-matrix:
 Charge =  0 Multiplicity = 1
 C1
 H2                   1    d
 H3                   1    d        2    a
 H4                   1    d        2    a        3    t        0
 H5                   1    d        2    a        3    -t       0
       Variables:
  d                     1.09                     
  a                   109.471                    
  t                   120.                       
 
     3 tetrahedral angles replaced.
 NAtoms=      5 NQM=      5 NQMF=      0 NMic=      0 NMicF=      0 NTot=      5.
                    Isotopes and Nuclear Properties:
 (Nuclear quadrupole moments (NQMom) in fm**2, nuclear magnetic moments (NMagM)
  in nuclear magnetons)

  Atom         1           2           3           4           5
 IAtWgt=          12           1           1           1           1
 AtmWgt=  12.0000000   1.0078250   1.0078250   1.0078250   1.0078250
 NucSpn=           0           1           1           1           1
 AtZEff=   0.0000000   0.0000000   0.0000000   0.0000000   0.0000000
 NQMom=    0.0000000   0.0000000   0.0000000   0.0000000   0.0000000
 NMagM=    0.0000000   2.7928460   2.7928460   2.7928460   2.7928460
 Leave Link  101 at Sun Aug 18 00:51:24 2024, MaxMem=   13107200 cpu:       0.1
 (Enter /programs/64bit/g09/g09-gfortran/bin/l103.exe)

 GradGradGradGradGradGradGradGradGradGradGradGradGradGradGradGradGradGrad
 Berny optimization.
 Initialization pass.
                           ----------------------------
                           !    Initial Parameters    !
                           ! (Angstroms and Degrees)  !
 --------------------------                            --------------------------
 ! Name  Definition              Value          Derivative Info.                !
 --------------------------------------------------------------------------------
 ! R1    R(1,2)                  1.09           estimate D2E/DX2                !
 ! R2    R(1,3)                  1.09           estimate D2E/DX2                !
 ! R3    R(1,4)                  1.09           estimate D2E/DX2                !
 ! R4    R(1,5)                  1.09           estimate D2E/DX2                !
 ! A1    A(2,1,3)              109.4712         estimate D2E/DX2                !
 ! A2    A(2,1,4)              109.4712         estimate D2E/DX2                !
 ! A3    A(2,1,5)              109.4712         estimate D2E/DX2                !
 ! A4    A(3,1,4)              109.4712         estimate D2E/DX2                !
 ! A5    A(3,1,5)              109.4712         estimate D2E/DX2                !
 ! A6    A(4,1,5)              109.4712         estimate D2E/DX2                !
 ! D1    D(2,1,4,3)           -120.0            estimate D2E/DX2                !
 ! D2    D(2,1,5,3)            120.0            estimate D2E/DX2                !
 ! D3    D(2,1,5,4)           -120.0            estimate D2E/DX2                !
 ! D4    D(3,1,5,4)            120.0            estimate D2E/DX2                !
 --------------------------------------------------------------------------------
 Trust Radius=3.00D-01 FncErr=1.00D-07 GrdErr=1.00D-07
 Number of steps in this run=  24 maximum allowed number of steps= 100.
 GradGradGradGradGradGradGradGradGradGradGradGradGradGradGradGradGradGrad

 Leave Link  103 at Sun Aug 18 00:51:24 2024, MaxMem=   13107200 cpu:       0.0
 (Enter /programs/64bit/g09/g09-gfortran/bin/l202.exe)
                          Input orientation:                          
 ---------------------------------------------------------------------
 Center     Atomic      Atomic             Coordinates (Angstroms)
 Number     Number       Type             X           Y           Z
 ---------------------------------------------------------------------
      1          6           0        0.000000    0.000000    0.000000
      2          1           0        0.000000    0.000000    1.090000
      3          1           0        1.027662    0.000000   -0.363333
      4          1           0       -0.513831   -0.889981   -0.363333
      5          1           0       -0.513831    0.889981   -0.363333
 ---------------------------------------------------------------------
                    Distance matrix (angstroms):
                    1          2          3          4          5
     1  C    0.000000
     2  H    1.090000   0.000000
     3  H    1.090000   1.779963   0.000000
     4  H    1.090000   1.779963   1.779963   0.000000
     5  H    1.090000   1.779963   1.779963   1.779963   0.000000
 Symm:  InNGrp=TD   InAxis=0.
 Stoichiometry    CH4
 Framework group  TD[O(C),4C3(H)]
 Deg. of freedom     1
 Full point group                 TD      NOp  24
 Largest Abelian subgroup         D2      NOp   4
 Largest concise Abelian subgroup D2      NOp   4
                         Standard orientation:                         
 ---------------------------------------------------------------------
 Center     Atomic      Atomic             Coordinates (Angstroms)
 Number     Number       Type             X           Y           Z
 ---------------------------------------------------------------------
      1          6           0        0.000000    0.000000    0.000000
      2          1           0        0.629312    0.629312    0.629312
      3          1           0       -0.629312   -0.629312    0.629312
      4          1           0       -0.629312    0.629312   -0.629312
      5          1           0        0.629312   -0.629312   -0.629312
 ---------------------------------------------------------------------
 Rotational constants (GHZ):    158.2742720    158.2742720    158.2742720
 Leave Link  202 at Sun Aug 18 00:51:24 2024, MaxMem=   13107200 cpu:       0.0
 (Enter /programs/64bit/g09/g09-gfortran/bin/l301.exe)
 Standard basis: STO-3G (5D, 7F)
 Ernie: Thresh=  0.10000D-02 Tol=  0.10000D-05 Strict=F.
 AO basis set in the form of general basis input (Overlap normalization):
      1 0
 S   3 1.00       0.000000000000
      0.7161683735D+02  0.1543289673D+00
      0.1304509632D+02  0.5353281423D+00
      0.3530512160D+01  0.4446345422D+00
 SP   3 1.00       0.000000000000
      0.2941249355D+01 -0.9996722919D-01  0.1559162750D+00
      0.6834830964D+00  0.3995128261D+00  0.6076837186D+00
      0.2222899159D+00  0.7001154689D+00  0.3919573931D+00
 ****
      2 0
 S   3 1.00       0.000000000000
      0.3425250914D+01  0.1543289673D+00
      0.6239137298D+00  0.5353281423D+00
      0.1688554040D+00  0.4446345422D+00
 ****
      3 0
 S   3 1.00       0.000000000000
      0.3425250914D+01  0.1543289673D+00
      0.6239137298D+00  0.5353281423D+00
      0.1688554040D+00  0.4446345422D+00
 ****
      4 0
 S   3 1.00       0.000000000000
      0.3425250914D+01  0.1543289673D+00
      0.6239137298D+00  0.5353281423D+00
      0.1688554040D+00  0.4446345422D+00
 ****
      5 0
 S   3 1.00       0.000000000000
      0.3425250914D+01  0.1543289673D+00
      0.6239137298D+00  0.5353281423D+00
      0.1688554040D+00  0.4446345422D+00
 ****

 There are     3 symmetry adapted basis functions of A   symmetry.
 There are     2 symmetry adapted basis functions of B1  symmetry.
 There are     2 symmetry adapted basis functions of B2  symmetry.
 There are     2 symmetry adapted basis functions of B3  symmetry.
 Integral buffers will be    131072 words long.
 Raffenetti 1 integral format.
 Two-electron integral symmetry is turned on.
     9 basis functions,    27 primitive gaussians,     9 cartesian basis functions
     5 alpha electrons        5 beta electrons
       nuclear repulsion energy        13.4353891954 Hartrees.
 IExCor=    0 DFT=F Ex=HF Corr=None ExCW=0 ScaHFX=  1.000000
 ScaDFX=  1.000000  1.000000  1.000000  1.000000 ScalE2=  1.000000  1.000000
 IRadAn=      0 IRanWt=     -1 IRanGd=            0 ICorTp=0
 NAtoms=    5 NActive=    5 NUniq=    2 SFac= 3.00D+00 NAtFMM=   80 NAOKFM=F Big=F
 Leave Link  301 at Sun Aug 18 00:51:24 2024, MaxMem=   13107200 cpu:       0.1
 (Enter /programs/64bit/g09/g09-gfortran/bin/l302.exe)
 NPDir=0 NMtPBC=     1 NCelOv=     1 NCel=       1 NClECP=     1 NCelD=      1
         NCelK=      1 NCelE2=     1 NClLst=     1 CellRange=     0.0.
 One-electron integrals computed using PRISM.
 One-electron integral symmetry used in STVInt
 NBasis=     9 RedAO= T  NBF=     3     2     2     2
 NBsUse=     9 1.00D-06 NBFU=     3     2     2     2
 Leave Link  302 at Sun Aug 18 00:51:25 2024, MaxMem=   13107200 cpu:       0.1
 (Enter /programs/64bit/g09/g09-gfortran/bin/l303.exe)
 DipDrv:  MaxL=1.
 Leave Link  303 at Sun Aug 18 00:51:25 2024, MaxMem=   13107200 cpu:       0.0
 (Enter /programs/64bit/g09/g09-gfortran/bin/l401.exe)
 Harris functional with IExCor=  205 diagonalized for initial guess.
 ExpMin= 1.69D-01 ExpMax= 7.16D+01 ExpMxC= 7.16D+01 IAcc=1 IRadAn=         1 AccDes= 0.00D+00
 HarFok:  IExCor=  205 AccDes= 0.00D+00 IRadAn=         1 IDoV= 1
 ScaDFX=  1.000000  1.000000  1.000000  1.000000
 FoFCou: FMM=F IPFlag=           0 FMFlag=      100000 FMFlg1=           0
         NFxFlg=           0 DoJE=T BraDBF=F KetDBF=T FulRan=T
         Omega=  0.000000  0.000000  1.000000  0.000000  0.000000 ICntrl=     500 IOpCl=  0
         NMat0=    1 NMatS0=    1 NMatT0=    0 NMatD0=    1 NMtDS0=    0 NMtDT0=    0
         I1Cent=           4 NGrid=           0.
 Petite list used in FoFCou.
 Harris En= -39.8861817635093    
 Initial guess orbital symmetries:
       Occupied  (A1) (A1) (T2) (T2) (T2)
       Virtual   (T2) (T2) (T2) (A1)
 The electronic state of the initial guess is 1-A1.
 Leave Link  401 at Sun Aug 18 00:51:25 2024, MaxMem=   13107200 cpu:       0.2
 (Enter /programs/64bit/g09/g09-gfortran/bin/l502.exe)
 Closed shell SCF:
 Requested convergence on RMS density matrix=1.00D-08 within 128 cycles.
 Requested convergence on MAX density matrix=1.00D-06.
 Requested convergence on             energy=1.00D-06.
 No special actions if energy rises.
 Using DIIS extrapolation, IDIIS=  1040.
 Integral symmetry usage will be decided dynamically.
 Keep R1 ints in memory in canonical form, NReq=820960.
 IEnd=       19911 IEndB=       19911 NGot=    13107200 MDV=    13103329
 LenX=    13103329 LenY=    13102447
 Symmetry not used in FoFDir.
 MinBra= 0 MaxBra= 1 Meth= 1.
 IRaf=       0 NMat=   1 IRICut=       1 DoRegI=T DoRafI=F ISym2E= 0 JSym2E=0.

 Cycle   1  Pass 1  IDiag  1:
 E= -39.6646130285835    
 DIIS: error= 6.46D-02 at cycle   1 NSaved=   1.
 NSaved= 1 IEnMin= 1 EnMin= -39.6646130285835     IErMin= 1 ErrMin= 6.46D-02
 ErrMax= 6.46D-02 EMaxC= 1.00D-01 BMatC= 5.29D-02 BMatP= 5.29D-02
 IDIUse=3 WtCom= 3.54D-01 WtEn= 6.46D-01
 Coeff-Com:  0.100D+01
 Coeff-En:   0.100D+01
 Coeff:      0.100D+01
 Gap=     1.214 Goal=   None    Shift=    0.000
 GapD=    1.214 DampG=2.000 DampE=0.500 DampFc=1.0000 IDamp=-1.
 RMSDP=3.68D-02 MaxDP=1.27D-01              OVMax= 0.00D+00

 Cycle   2  Pass 1  IDiag  1:
 E= -39.7247320613333     Delta-E=       -0.060119032750 Rises=F Damp=F
 DIIS: error= 1.48D-02 at cycle   2 NSaved=   2.
 NSaved= 2 IEnMin= 2 EnMin= -39.7247320613333     IErMin= 2 ErrMin= 1.48D-02
 ErrMax= 1.48D-02 EMaxC= 1.00D-01 BMatC= 1.87D-03 BMatP= 5.29D-02
 IDIUse=3 WtCom= 8.52D-01 WtEn= 1.48D-01
 Coeff-Com:  0.126D+00 0.874D+00
 Coeff-En:   0.000D+00 0.100D+01
 Coeff:      0.107D+00 0.893D+00
 Gap=     1.229 Goal=   None    Shift=    0.000
 RMSDP=6.02D-03 MaxDP=2.66D-02 DE=-6.01D-02 OVMax= 0.00D+00

 Cycle   3  Pass 1  IDiag  1:
 E= -39.7266901029616     Delta-E=       -0.001958041628 Rises=F Damp=F
 DIIS: error= 7.05D-04 at cycle   3 NSaved=   3.
 NSaved= 3 IEnMin= 3 EnMin= -39.7266901029616     IErMin= 3 ErrMin= 7.05D-04
 ErrMax= 7.05D-04 EMaxC= 1.00D-01 BMatC= 6.45D-06 BMatP= 1.87D-03
 IDIUse=3 WtCom= 9.93D-01 WtEn= 7.05D-03
 Coeff-Com: -0.994D-02-0.485D-02 0.101D+01
 Coeff-En:   0.000D+00 0.000D+00 0.100D+01
 Coeff:     -0.987D-02-0.481D-02 0.101D+01
 Gap=     1.231 Goal=   None    Shift=    0.000
 RMSDP=3.99D-04 MaxDP=1.31D-03 DE=-1.96D-03 OVMax= 0.00D+00

 Cycle   4  Pass 1  IDiag  1:
 E= -39.7266998410892     Delta-E=       -0.000009738128 Rises=F Damp=F
 DIIS: error= 1.23D-04 at cycle   4 NSaved=   4.
 NSaved= 4 IEnMin= 4 EnMin= -39.7266998410892     IErMin= 4 ErrMin= 1.23D-04
 ErrMax= 1.23D-04 EMaxC= 1.00D-01 BMatC= 1.25D-07 BMatP= 6.45D-06
 IDIUse=3 WtCom= 9.99D-01 WtEn= 1.23D-03
 Coeff-Com:  0.275D-02-0.277D-02-0.316D+00 0.132D+01
 Coeff-En:   0.000D+00 0.000D+00 0.000D+00 0.100D+01
 Coeff:      0.275D-02-0.276D-02-0.315D+00 0.132D+01
 Gap=     1.231 Goal=   None    Shift=    0.000
 RMSDP=7.66D-05 MaxDP=5.30D-04 DE=-9.74D-06 OVMax= 0.00D+00

 Cycle   5  Pass 1  IDiag  1:
 E= -39.7267000492557     Delta-E=       -0.000000208166 Rises=F Damp=F
 DIIS: error= 4.15D-07 at cycle   5 NSaved=   5.
 NSaved= 5 IEnMin= 5 EnMin= -39.7267000492557     IErMin= 5 ErrMin= 4.15D-07
 ErrMax= 4.15D-07 EMaxC= 1.00D-01 BMatC= 2.55D-12 BMatP= 1.25D-07
 IDIUse=1 WtCom= 1.00D+00 WtEn= 0.00D+00
 Coeff-Com: -0.328D-05-0.455D-04 0.908D-04 0.210D-02 0.998D+00
 Coeff:     -0.328D-05-0.455D-04 0.908D-04 0.210D-02 0.998D+00
 Gap=     1.231 Goal=   None    Shift=    0.000
 RMSDP=2.08D-07 MaxDP=6.92D-07 DE=-2.08D-07 OVMax= 0.00D+00

 Cycle   6  Pass 1  IDiag  1:
 E= -39.7267000492582     Delta-E=       -0.000000000003 Rises=F Damp=F
 DIIS: error= 7.36D-10 at cycle   6 NSaved=   6.
 NSaved= 6 IEnMin= 6 EnMin= -39.7267000492582     IErMin= 6 ErrMin= 7.36D-10
 ErrMax= 7.36D-10 EMaxC= 1.00D-01 BMatC= 6.22D-18 BMatP= 2.55D-12
 IDIUse=1 WtCom= 1.00D+00 WtEn= 0.00D+00
 Large coefficients: NSaved=  6 BigCof=    0.00 CofMax=   10.00 Det= 8.38D-28
 Inversion failed.  Reducing to  5 matrices.
 Coeff-Com: -0.157D-09 0.132D-06-0.245D-05 0.150D-02 0.998D+00
 Coeff:     -0.157D-09 0.132D-06-0.245D-05 0.150D-02 0.998D+00
 Gap=     1.231 Goal=   None    Shift=    0.000
 RMSDP=3.79D-10 MaxDP=1.52D-09 DE=-2.50D-12 OVMax= 0.00D+00

 SCF Done:  E(RHF) =  -39.7267000493     A.U. after    6 cycles
             Convg  =    0.3793D-09             -V/T =  2.0072
 KE= 3.944408395267D+01 PE=-1.187842718498D+02 EE= 2.617809865248D+01
 Leave Link  502 at Sun Aug 18 00:51:25 2024, MaxMem=   13107200 cpu:       0.1
 (Enter /programs/64bit/g09/g09-gfortran/bin/l801.exe)
 ExpMin= 1.69D-01 ExpMax= 7.16D+01 ExpMxC= 7.16D+01 IAcc=1 IRadAn=         1 AccDes= 0.00D+00
 HarFok:  IExCor=  205 AccDes= 0.00D+00 IRadAn=         1 IDoV=-2
 ScaDFX=  1.000000  1.000000  1.000000  1.000000
 Largest valence mixing into a core orbital is  1.74D-04
 Largest core mixing into a valence orbital is  1.19D-04
 Range of M.O.s used for correlation:     2     9
 NBasis=     9 NAE=     5 NBE=     5 NFC=     1 NFV=     0
 NROrb=      8 NOA=     4 NOB=     4 NVA=     4 NVB=     4
 Leave Link  801 at Sun Aug 18 00:51:25 2024, MaxMem=   13107200 cpu:       0.1
 (Enter /programs/64bit/g09/g09-gfortran/bin/l906.exe)
 Frozen-core derivative calculation, NFC=   1 NFV=   0.
 FulOut=F Deriv=T AODrv=T NAtomX=     5
   MMem=       10325  MDisk=           4 MDiskD=           4
  W3Min=         405 MinDsk=       51143 NBas6D=           9
 NBas2D=          51    NTT=          45    LW2=     2000000
    MDV=    13102498 MDiskM=       12850 NBas2p=          30
 Fully direct method using O(ONN) memory.
 IMap=   1   2   3   4   5
 JobTyp=1 Pass  1:  I=   2 to   5 NPSUse=  1 ParTrn=F ParDer=F DoDerP=T.
 Spin components of T(2) and E(2):
     alpha-alpha T2 =       0.5346672899D-03 E2=     -0.1456931420D-02
     alpha-beta  T2 =       0.2031652495D-01 E2=     -0.5318915823D-01
     beta-beta   T2 =       0.5346672899D-03 E2=     -0.1456931420D-02
 The integrals were generated   1 times.
 ANorm=    0.1010636364D+01
 E2 =    -0.5610302107D-01 EUMP2 =    -0.39782803070332D+02
 Leave Link  906 at Sun Aug 18 00:51:25 2024, MaxMem=   13107200 cpu:       0.1
 (Enter /programs/64bit/g09/g09-gfortran/bin/l1002.exe)
 Minotr:  Closed shell wavefunction.
          Computing MP2/KS-MP2 derivatives.
          Using Z-Vector for PSCF gradient.
          Skipping F1 and S1 gradient terms here.
          IDoAtm=11111
          Frozen-core window.
          Direct CPHF calculation.
          Differentiating once with respect to electric field.
                with respect to dipole field.
          Differentiating once with respect to nuclear coordinates.
          Using symmetry in CPHF.
          Requested convergence is 1.0D-10 RMS, and 1.0D-09 maximum.
          NewPWx=F KeepS1=T KeepF1=T KeepIn=T MapXYZ=F SortEE=F KeepMc=T.
          MDV=      13107146 using IRadAn=       0.
          Keep R1 ints in memory in canonical form, NReq=801790.
 Symmetry not used in FoFDir.
 MinBra= 0 MaxBra= 1 Meth= 1.
 IRaf=       0 NMat=   1 IRICut=       1 DoRegI=T DoRafI=F ISym2E= 0 JSym2E=0.
          Solving linear equations separately, MaxMat=       0.
          There are     1 degrees of freedom in the 1st order CPHF.  IDoFFX=0.
 LinEq1:  Iter=  0 NonCon=     1 RMS=1.63D-04 Max=3.33D-04
 AX will form     1 AO Fock derivatives at one time.
 LinEq1:  Iter=  1 NonCon=     1 RMS=1.40D-05 Max=5.37D-05
 LinEq1:  Iter=  2 NonCon=     1 RMS=6.40D-07 Max=2.54D-06
 LinEq1:  Iter=  3 NonCon=     0 RMS=6.33D-19 Max=2.16D-18
 Linear equations converged to 1.000D-10 1.000D-09 after     3 iterations.
 End of Minotr Frequency-dependent properties file   721 does not exist.
 End of Minotr Frequency-dependent properties file   722 does not exist.
 Leave Link 1002 at Sun Aug 18 00:51:25 2024, MaxMem=   13107200 cpu:       0.1
 (Enter /programs/64bit/g09/g09-gfortran/bin/l601.exe)
 Copying SCF densities to generalized density rwf, IOpCl= 0 IROHF=0.

 **********************************************************************

            Population analysis using the SCF density.

 **********************************************************************

 Orbital symmetries:
       Occupied  (A1) (A1) (T2) (T2) (T2)
       Virtual   (T2) (T2) (T2) (A1)
 The electronic state is 1-A1.
 Alpha  occ. eigenvalues --  -11.03030  -0.90848  -0.51774  -0.51774  -0.51774
 Alpha virt. eigenvalues --    0.71302   0.71302   0.71302   0.75049
     Molecular Orbital Coefficients:
                           1         2         3         4         5
                        (A1)--O   (A1)--O   (T2)--O   (T2)--O   (T2)--O
     Eigenvalues --   -11.03030  -0.90848  -0.51774  -0.51774  -0.51774
   1 1   C  1S          0.99196  -0.22117   0.00000   0.00000   0.00000
   2        2S          0.03803   0.62953   0.00000   0.00000   0.00000
   3        2PX         0.00000   0.00000   0.00000   0.00000   0.57112
   4        2PY         0.00000   0.00000   0.00000   0.57112   0.00000
   5        2PZ         0.00000   0.00000   0.57112   0.00000   0.00000
   6 2   H  1S         -0.00692   0.18076   0.30154   0.30154   0.30154
   7 3   H  1S         -0.00692   0.18076   0.30154  -0.30154  -0.30154
   8 4   H  1S         -0.00692   0.18076  -0.30154   0.30154  -0.30154
   9 5   H  1S         -0.00692   0.18076  -0.30154  -0.30154   0.30154
                           6         7         8         9
                        (T2)--V   (T2)--V   (T2)--V   (A1)--V
     Eigenvalues --     0.71302   0.71302   0.71302   0.75049
   1 1   C  1S          0.00000   0.00000   0.00000  -0.25168
   2        2S          0.00000   0.00000   0.00000   1.61461
   3        2PX         0.00000   0.00000   1.10152   0.00000
   4        2PY         0.00000   1.10152   0.00000   0.00000
   5        2PZ         1.10152   0.00000   0.00000   0.00000
   6 2   H  1S         -0.61023  -0.61023  -0.61023  -0.66302
   7 3   H  1S         -0.61023   0.61023   0.61023  -0.66302
   8 4   H  1S          0.61023  -0.61023   0.61023  -0.66302
   9 5   H  1S          0.61023   0.61023  -0.61023  -0.66302
     Density Matrix:
                           1         2         3         4         5
   1 1   C  1S          2.06579
   2        2S         -0.20302   0.79552
   3        2PX         0.00000   0.00000   0.65235
   4        2PY         0.00000   0.00000   0.00000   0.65235
   5        2PZ         0.00000   0.00000   0.00000   0.00000   0.65235
   6 2   H  1S         -0.09369   0.22707   0.34443   0.34443   0.34443
   7 3   H  1S         -0.09369   0.22707  -0.34443  -0.34443   0.34443
   8 4   H  1S         -0.09369   0.22707  -0.34443   0.34443  -0.34443
   9 5   H  1S         -0.09369   0.22707   0.34443  -0.34443  -0.34443
                           6         7         8         9
   6 2   H  1S          0.61101
   7 3   H  1S         -0.11641   0.61101
   8 4   H  1S         -0.11641  -0.11641   0.61101
   9 5   H  1S         -0.11641  -0.11641  -0.11641   0.61101
    Full Mulliken population analysis:
                           1         2         3         4         5
   1 1   C  1S          2.06579
   2        2S         -0.05042   0.79552
   3        2PX         0.00000   0.00000   0.65235
   4        2PY         0.00000   0.00000   0.00000   0.65235
   5        2PZ         0.00000   0.00000   0.00000   0.00000   0.65235
   6 2   H  1S         -0.00583   0.11143   0.09292   0.09292   0.09292
   7 3   H  1S         -0.00583   0.11143   0.09292   0.09292   0.09292
   8 4   H  1S         -0.00583   0.11143   0.09292   0.09292   0.09292
   9 5   H  1S         -0.00583   0.11143   0.09292   0.09292   0.09292
                           6         7         8         9
   6 2   H  1S          0.61101
   7 3   H  1S         -0.01970   0.61101
   8 4   H  1S         -0.01970  -0.01970   0.61101
   9 5   H  1S         -0.01970  -0.01970  -0.01970   0.61101
     Gross orbital populations:
                           1
   1 1   C  1S          1.99203
   2        2S          1.19084
   3        2PX         1.02403
   4        2PY         1.02403
   5        2PZ         1.02403
   6 2   H  1S          0.93626
   7 3   H  1S          0.93626
   8 4   H  1S          0.93626
   9 5   H  1S          0.93626
          Condensed to atoms (all electrons):
              1          2          3          4          5
     1  C    4.717516   0.384362   0.384362   0.384362   0.384362
     2  H    0.384362   0.611008  -0.019704  -0.019704  -0.019704
     3  H    0.384362  -0.019704   0.611008  -0.019704  -0.019704
     4  H    0.384362  -0.019704  -0.019704   0.611008  -0.019704
     5  H    0.384362  -0.019704  -0.019704  -0.019704   0.611008
 Mulliken atomic charges:
              1
     1  C   -0.254965
     2  H    0.063741
     3  H    0.063741
     4  H    0.063741
     5  H    0.063741
 Sum of Mulliken atomic charges =   0.00000
 Mulliken charges with hydrogens summed into heavy atoms:
              1
     1  C    0.000000
 Sum of Mulliken charges with hydrogens summed into heavy atoms =   0.00000
 Electronic spatial extent (au):  <R**2>=             34.4610
 Charge=              0.0000 electrons
 Dipole moment (field-independent basis, Debye):
    X=              0.0000    Y=             -0.0000    Z=             -0.0000  Tot=              0.0000
 Quadrupole moment (field-independent basis, Debye-Ang):
   XX=             -7.8415   YY=             -7.8415   ZZ=             -7.8415
   XY=             -0.0000   XZ=             -0.0000   YZ=             -0.0000
 Traceless Quadrupole moment (field-independent basis, Debye-Ang):
   XX=              0.0000   YY=             -0.0000   ZZ=              0.0000
   XY=             -0.0000   XZ=             -0.0000   YZ=             -0.0000
 Octapole moment (field-independent basis, Debye-Ang**2):
  XXX=              0.0000  YYY=             -0.0000  ZZZ=             -0.0000  XYY=              0.0000
  XXY=              0.0000  XXZ=              0.0000  XZZ=              0.0000  YZZ=              0.0000
  YYZ=             -0.0000  XYZ=              0.5859
 Hexadecapole moment (field-independent basis, Debye-Ang**3):
 XXXX=            -13.7920 YYYY=            -13.7920 ZZZZ=            -13.7920 XXXY=              0.0000
 XXXZ=             -0.0000 YYYX=             -0.0000 YYYZ=             -0.0000 ZZZX=             -0.0000
 ZZZY=             -0.0000 XXYY=             -4.2118 XXZZ=             -4.2118 YYZZ=             -4.2118
 XXYZ=             -0.0000 YYXZ=             -0.0000 ZZXY=             -0.0000
 N-N= 1.343538919541D+01 E-N=-1.187842718423D+02  KE= 3.944408395267D+01
 Symmetry A    KE= 3.363490849568D+01
 Symmetry B1   KE= 1.936391818997D+00
 Symmetry B2   KE= 1.936391818997D+00
 Symmetry B3   KE= 1.936391818997D+00
 Orbital energies and kinetic energies (alpha):
                                 1                 2
   1         (A1)--O         -11.030296         15.631263
   2         (A1)--O          -0.908485          1.186191
   3         (T2)--O          -0.517738          0.968196
   4         (T2)--O          -0.517738          0.968196
   5         (T2)--O          -0.517738          0.968196
   6         (T2)--V           0.713020          2.122509
   7         (T2)--V           0.713020          2.122509
   8         (T2)--V           0.713020          2.122509
   9         (A1)--V           0.750493          2.685355
 Total kinetic energy from orbitals= 3.944408395267D+01
 No NMR shielding tensors so no spin-rotation constants.
 Leave Link  601 at Sun Aug 18 00:51:25 2024, MaxMem=   13107200 cpu:       0.1
 (Enter /programs/64bit/g09/g09-gfortran/bin/l701.exe)
 Compute integral first derivatives.
 ... and contract with generalized density number  2.
 Leave Link  701 at Sun Aug 18 00:51:25 2024, MaxMem=   13107200 cpu:       0.1
 (Enter /programs/64bit/g09/g09-gfortran/bin/l702.exe)
 L702 exits ... SP integral derivatives will be done elsewhere.
 Leave Link  702 at Sun Aug 18 00:51:26 2024, MaxMem=   13107200 cpu:       0.0
 (Enter /programs/64bit/g09/g09-gfortran/bin/l703.exe)
 Compute integral first derivatives, UseDBF=F ICtDFT=           0.
 Integral derivatives from FoFDir, PRISM(SPDF).
 Calling FoFJK, ICntrl=      2127 FMM=F ISym2X=1 I1Cent= 0 IOpClX= 0 NMat=1 NMatS=1 NMatT=0.
 FoFCou: FMM=F IPFlag=           0 FMFlag=      100000 FMFlg1=         800
         NFxFlg=           0 DoJE=F BraDBF=F KetDBF=F FulRan=T
         Omega=  0.000000  0.000000  1.000000  0.000000  0.000000 ICntrl=    2127 IOpCl=  0
         NMat0=    1 NMatS0=    1 NMatT0=    0 NMatD0=    1 NMtDS0=    0 NMtDT0=    0
         I1Cent=           0 NGrid=           0.
 Petite list used in FoFCou.
 Leave Link  703 at Sun Aug 18 00:51:26 2024, MaxMem=   13107200 cpu:       0.1
 (Enter /programs/64bit/g09/g09-gfortran/bin/l716.exe)
 Dipole        = 2.22044605D-16-2.22044605D-16-2.22044605D-16
 ***** Axes restored to original set *****
 -------------------------------------------------------------------
 Center     Atomic                   Forces (Hartrees/Bohr)
 Number     Number              X              Y              Z
 -------------------------------------------------------------------
      1        6           0.000000000    0.000000000   -0.000000000
      2        1          -0.000000000    0.000000000    0.007639981
      3        1           0.007203044   -0.000000000   -0.002546660
      4        1          -0.003601522   -0.006238019   -0.002546660
      5        1          -0.003601522    0.006238019   -0.002546660
 -------------------------------------------------------------------
 Cartesian Forces:  Max     0.007639981 RMS     0.003945269
 Leave Link  716 at Sun Aug 18 00:51:26 2024, MaxMem=   13107200 cpu:       0.0
 (Enter /programs/64bit/g09/g09-gfortran/bin/l103.exe)

 GradGradGradGradGradGradGradGradGradGradGradGradGradGradGradGradGradGrad
 Berny optimization.
 Internal  Forces:  Max     0.007639981 RMS     0.004083742
 Search for a local minimum.
 Step number   1 out of a maximum of   24
 All quantities printed in internal units (Hartrees-Bohrs-Radians)
 RMS Force = .40837D-02 SwitMx=.10000D-02 MixMth= 1
 Mixed Optimization -- RFO/linear search
 Second derivative matrix not updated -- first step.
 The second derivative matrix:
                          R1        R2        R3        R4        A1
           R1           0.34813
           R2           0.00000   0.34813
           R3           0.00000   0.00000   0.34813
           R4           0.00000   0.00000   0.00000   0.34813
           A1           0.00000   0.00000   0.00000   0.00000   0.16000
           A2           0.00000   0.00000   0.00000   0.00000   0.00000
           A3           0.00000   0.00000   0.00000   0.00000   0.00000
           A4           0.00000   0.00000   0.00000   0.00000   0.00000
           A5           0.00000   0.00000   0.00000   0.00000   0.00000
           A6           0.00000   0.00000   0.00000   0.00000   0.00000
           D1           0.00000   0.00000   0.00000   0.00000   0.00000
           D2           0.00000   0.00000   0.00000   0.00000   0.00000
           D3           0.00000   0.00000   0.00000   0.00000   0.00000
           D4           0.00000   0.00000   0.00000   0.00000   0.00000
                          A2        A3        A4        A5        A6
           A2           0.16000
           A3           0.00000   0.16000
           A4           0.00000   0.00000   0.16000
           A5           0.00000   0.00000   0.00000   0.16000
           A6           0.00000   0.00000   0.00000   0.00000   0.16000
           D1           0.00000   0.00000   0.00000   0.00000   0.00000
           D2           0.00000   0.00000   0.00000   0.00000   0.00000
           D3           0.00000   0.00000   0.00000   0.00000   0.00000
           D4           0.00000   0.00000   0.00000   0.00000   0.00000
                          D1        D2        D3        D4
           D1           0.00235
           D2           0.00000   0.00235
           D3           0.00000   0.00000   0.00235
           D4           0.00000   0.00000   0.00000   0.00235
     Eigenvalues ---    0.05086   0.05718   0.08643   0.16000   0.16000
     Eigenvalues ---    0.34813   0.34813   0.34813   0.348131000.00000
     Eigenvalues --- 1000.000001000.000001000.000001000.00000
 RFO step:  Lambda=-6.69378572D-04 EMin= 5.08565158D-02
 Linear search not attempted -- first point.
 Iteration  1 RMS(Cart)=  0.01170812 RMS(Int)=  0.00000000
 Iteration  2 RMS(Cart)=  0.00000000 RMS(Int)=  0.00000000
 ClnCor:  largest displacement from symmetrization is 2.29D-14 for atom     2.
 Variable       Old X    -DE/DX   Delta X   Delta X   Delta X     New X
                                 (Linear)    (Quad)   (Total)
    R1        2.05980   0.00764   0.00000   0.02190   0.02190   2.08171
    R2        2.05980   0.00764   0.00000   0.02190   0.02190   2.08171
    R3        2.05980   0.00764   0.00000   0.02190   0.02190   2.08171
    R4        2.05980   0.00764   0.00000   0.02190   0.02190   2.08171
    A1        1.91063   0.00000   0.00000   0.00000   0.00000   1.91063
    A2        1.91063   0.00000   0.00000  -0.00000  -0.00000   1.91063
    A3        1.91063  -0.00000   0.00000  -0.00000   0.00000   1.91063
    A4        1.91063  -0.00000   0.00000  -0.00000  -0.00000   1.91063
    A5        1.91063   0.00000   0.00000  -0.00000   0.00000   1.91063
    A6        1.91063   0.00000   0.00000   0.00000   0.00000   1.91063
    D1       -2.09440  -0.00000   0.00000  -0.00000   0.00000  -2.09440
    D2        2.09440   0.00000   0.00000   0.00000   0.00000   2.09440
    D3       -2.09440   0.00000   0.00000   0.00000   0.00000  -2.09440
    D4        2.09440  -0.00000   0.00000  -0.00000   0.00000   2.09440
         Item               Value     Threshold  Converged?
 Maximum Force            0.007640     0.000450     NO 
 RMS     Force            0.004084     0.000300     NO 
 Maximum Displacement     0.021904     0.001800     NO 
 RMS     Displacement     0.011708     0.001200     NO 
 Predicted change in Energy=-3.353328D-04
 GradGradGradGradGradGradGradGradGradGradGradGradGradGradGradGradGradGrad

 Leave Link  103 at Sun Aug 18 00:51:26 2024, MaxMem=   13107200 cpu:       0.0
 (Enter /programs/64bit/g09/g09-gfortran/bin/l202.exe)
                          Input orientation:                          
 ---------------------------------------------------------------------
 Center     Atomic      Atomic             Coordinates (Angstroms)
 Number     Number       Type             X           Y           Z
 ---------------------------------------------------------------------
      1          6           0        0.000000    0.000000   -0.000000
      2          1           0        0.000000    0.000000    1.101591
      3          1           0        1.038590   -0.000000   -0.367197
      4          1           0       -0.519295   -0.899445   -0.367197
      5          1           0       -0.519295    0.899445   -0.367197
 ---------------------------------------------------------------------
                    Distance matrix (angstroms):
                    1          2          3          4          5
     1  C    0.000000
     2  H    1.101591   0.000000
     3  H    1.101591   1.798891   0.000000
     4  H    1.101591   1.798891   1.798891   0.000000
     5  H    1.101591   1.798891   1.798891   1.798891   0.000000
 Stoichiometry    CH4
 Framework group  TD[O(C),4C3(H)]
 Deg. of freedom     1
 Prev. full point group           TD      NOp  24
 Prev. largest Abelian subgroup   D2      NOp   4
       concise Abelian subgroup   D2      NOp   4
                   Standard orientation:
 ---------------------------------------------------------------------
 Center     Atomic                     Coordinates (Angstroms)
 Number     Number                        X           Y           Z
 ---------------------------------------------------------------------
      1          6                    0.000000    0.000000    0.000000
      2          1                    0.709369    0.551731    0.637096
      3          1                   -0.710588   -0.552680    0.634911
      4          1                   -0.551596    0.710453   -0.636003
      5          1                    0.552816   -0.709505   -0.636003
 ---------------------------------------------------------------------
 TstSym:  Max error for IOp= 20 IAt=    4 Err= 3.00D-01
 TstSym:  IOp= 25 I=    6 IP=    4 Err= 3.00D-01
  CI=  0.000000000000D+00  0.000000000000D+00  0.000000000000D+00
   T= -1.042365970190D+00 -1.201872268240D+00  1.342562279370D+00
 CIP= -1.042365970190D+00  1.342562279370D+00 -1.201872268240D+00
 Unable to use previous symmetry information.  Redetermining point group.
 No symmetry information on checkpoint file.  Reassigning symmetry.
 Symm:  InNGrp=TD   InAxis=0.
 Stoichiometry    CH4
 Framework group  TD[O(C),4C3(H)]
 Deg. of freedom     1
 Full point group                 TD      NOp  24
 Largest Abelian subgroup         D2      NOp   4
 Largest concise Abelian subgroup D2      NOp   4
                         Standard orientation:                         
 ---------------------------------------------------------------------
 Center     Atomic      Atomic             Coordinates (Angstroms)
 Number     Number       Type             X           Y           Z
 ---------------------------------------------------------------------
      1          6           0        0.000000    0.000000    0.000000
      2          1           0        0.636004    0.636004    0.636004
      3          1           0       -0.636004   -0.636004    0.636004
      4          1           0       -0.636004    0.636004   -0.636004
      5          1           0        0.636004   -0.636004   -0.636004
 ---------------------------------------------------------------------
 Rotational constants (GHZ):    154.9610442    154.9610442    154.9610442
 Leave Link  202 at Sun Aug 18 00:51:26 2024, MaxMem=   13107200 cpu:       0.0
 (Enter /programs/64bit/g09/g09-gfortran/bin/l301.exe)
 Standard basis: STO-3G (5D, 7F)
 Ernie: Thresh=  0.10000D-02 Tol=  0.10000D-05 Strict=F.
 There are     3 symmetry adapted basis functions of A   symmetry.
 There are     2 symmetry adapted basis functions of B1  symmetry.
 There are     2 symmetry adapted basis functions of B2  symmetry.
 There are     2 symmetry adapted basis functions of B3  symmetry.
 Integral buffers will be    131072 words long.
 Raffenetti 1 integral format.
 Two-electron integral symmetry is turned on.
     9 basis functions,    27 primitive gaussians,     9 cartesian basis functions
     5 alpha electrons        5 beta electrons
       nuclear repulsion energy        13.2940208736 Hartrees.
 IExCor=    0 DFT=F Ex=HF Corr=None ExCW=0 ScaHFX=  1.000000
 ScaDFX=  1.000000  1.000000  1.000000  1.000000 ScalE2=  1.000000  1.000000
 IRadAn=      0 IRanWt=     -1 IRanGd=            0 ICorTp=0
 NAtoms=    5 NActive=    5 NUniq=    2 SFac= 3.00D+00 NAtFMM=   80 NAOKFM=F Big=F
 Leave Link  301 at Sun Aug 18 00:51:26 2024, MaxMem=   13107200 cpu:       0.1
 (Enter /programs/64bit/g09/g09-gfortran/bin/l302.exe)
 NPDir=0 NMtPBC=     1 NCelOv=     1 NCel=       1 NClECP=     1 NCelD=      1
         NCelK=      1 NCelE2=     1 NClLst=     1 CellRange=     0.0.
 One-electron integrals computed using PRISM.
 One-electron integral symmetry used in STVInt
 NBasis=     9 RedAO= T  NBF=     3     2     2     2
 NBsUse=     9 1.00D-06 NBFU=     3     2     2     2
 Leave Link  302 at Sun Aug 18 00:51:26 2024, MaxMem=   13107200 cpu:       0.1
 (Enter /programs/64bit/g09/g09-gfortran/bin/l303.exe)
 DipDrv:  MaxL=1.
 Leave Link  303 at Sun Aug 18 00:51:26 2024, MaxMem=   13107200 cpu:       0.0
 (Enter /programs/64bit/g09/g09-gfortran/bin/l401.exe)
 Initial guess read from the read-write file.
 B after Tr=     0.000000    0.000000    0.000000
         Rot=    1.000000    0.000000    0.000000    0.000000 Ang=   0.00 deg.
 Guess basis will be translated and rotated to current coordinates.
 Initial guess orbital symmetries:
       Occupied  (A1) (A1) (T2) (T2) (T2)
       Virtual   (T2) (T2) (T2) (A1)
 The electronic state of the initial guess is 1-A1.
 Generating alternative initial guess.
 Harris functional with IExCor=  205 diagonalized for initial guess.
 ExpMin= 1.69D-01 ExpMax= 7.16D+01 ExpMxC= 7.16D+01 IAcc=1 IRadAn=         1 AccDes= 0.00D+00
 HarFok:  IExCor=  205 AccDes= 0.00D+00 IRadAn=         1 IDoV= 1
 ScaDFX=  1.000000  1.000000  1.000000  1.000000
 FoFCou: FMM=F IPFlag=           0 FMFlag=      100000 FMFlg1=           0
         NFxFlg=           0 DoJE=T BraDBF=F KetDBF=T FulRan=T
         Omega=  0.000000  0.000000  1.000000  0.000000  0.000000 ICntrl=     500 IOpCl=  0
         NMat0=    1 NMatS0=    1 NMatT0=    0 NMatD0=    1 NMtDS0=    0 NMtDT0=    0
         I1Cent=           4 NGrid=           0.
 Petite list used in FoFCou.
 Harris En= -39.8844914901196    
 Leave Link  401 at Sun Aug 18 00:51:26 2024, MaxMem=   13107200 cpu:       0.3
 (Enter /programs/64bit/g09/g09-gfortran/bin/l502.exe)
 Closed shell SCF:
 Requested convergence on RMS density matrix=1.00D-08 within 128 cycles.
 Requested convergence on MAX density matrix=1.00D-06.
 Requested convergence on             energy=1.00D-06.
 No special actions if energy rises.
 Using DIIS extrapolation, IDIIS=  1040.
 Integral symmetry usage will be decided dynamically.
 Keep R1 ints in memory in canonical form, NReq=820960.
 IEnd=       19911 IEndB=       19911 NGot=    13107200 MDV=    13103329
 LenX=    13103329 LenY=    13102447
 Symmetry not used in FoFDir.
 MinBra= 0 MaxBra= 1 Meth= 1.
 IRaf=       0 NMat=   1 IRICut=       1 DoRegI=T DoRafI=F ISym2E= 0 JSym2E=0.

 Cycle   1  Pass 1  IDiag  1:
 E= -39.7257074714186    
 DIIS: error= 1.05D-03 at cycle   1 NSaved=   1.
 NSaved= 1 IEnMin= 1 EnMin= -39.7257074714186     IErMin= 1 ErrMin= 1.05D-03
 ErrMax= 1.05D-03 EMaxC= 1.00D-01 BMatC= 1.95D-05 BMatP= 1.95D-05
 IDIUse=3 WtCom= 9.89D-01 WtEn= 1.05D-02
 Coeff-Com:  0.100D+01
 Coeff-En:   0.100D+01
 Coeff:      0.100D+01
 Gap=     1.216 Goal=   None    Shift=    0.000
 GapD=    1.216 DampG=2.000 DampE=1.000 DampFc=2.0000 IDamp=-1.
 RMSDP=6.18D-04 MaxDP=2.07D-03              OVMax= 0.00D+00

 Cycle   2  Pass 1  IDiag  1:
 E= -39.7257274120871     Delta-E=       -0.000019940668 Rises=F Damp=F
 DIIS: error= 3.70D-04 at cycle   2 NSaved=   2.
 NSaved= 2 IEnMin= 2 EnMin= -39.7257274120871     IErMin= 2 ErrMin= 3.70D-04
 ErrMax= 3.70D-04 EMaxC= 1.00D-01 BMatC= 7.59D-07 BMatP= 1.95D-05
 IDIUse=3 WtCom= 9.96D-01 WtEn= 3.70D-03
 Coeff-Com:  0.376D-01 0.962D+00
 Coeff-En:   0.000D+00 0.100D+01
 Coeff:      0.375D-01 0.963D+00
 Gap=     1.216 Goal=   None    Shift=    0.000
 RMSDP=1.28D-04 MaxDP=8.81D-04 DE=-1.99D-05 OVMax= 0.00D+00

 Cycle   3  Pass 1  IDiag  1:
 E= -39.7257282279511     Delta-E=       -0.000000815864 Rises=F Damp=F
 DIIS: error= 3.74D-05 at cycle   3 NSaved=   3.
 NSaved= 3 IEnMin= 3 EnMin= -39.7257282279511     IErMin= 3 ErrMin= 3.74D-05
 ErrMax= 3.74D-05 EMaxC= 1.00D-01 BMatC= 2.31D-08 BMatP= 7.59D-07
 IDIUse=1 WtCom= 1.00D+00 WtEn= 0.00D+00
 Coeff-Com: -0.241D-01-0.169D-01 0.104D+01
 Coeff:     -0.241D-01-0.169D-01 0.104D+01
 Gap=     1.216 Goal=   None    Shift=    0.000
 RMSDP=2.78D-05 MaxDP=1.22D-04 DE=-8.16D-07 OVMax= 0.00D+00

 Cycle   4  Pass 1  IDiag  1:
 E= -39.7257282689455     Delta-E=       -0.000000040994 Rises=F Damp=F
 DIIS: error= 8.84D-06 at cycle   4 NSaved=   4.
 NSaved= 4 IEnMin= 4 EnMin= -39.7257282689455     IErMin= 4 ErrMin= 8.84D-06
 ErrMax= 8.84D-06 EMaxC= 1.00D-01 BMatC= 5.35D-10 BMatP= 2.31D-08
 IDIUse=1 WtCom= 1.00D+00 WtEn= 0.00D+00
 Coeff-Com:  0.268D-02-0.181D-01-0.163D+00 0.118D+01
 Coeff:      0.268D-02-0.181D-01-0.163D+00 0.118D+01
 Gap=     1.216 Goal=   None    Shift=    0.000
 RMSDP=4.94D-06 MaxDP=3.53D-05 DE=-4.10D-08 OVMax= 0.00D+00

 Cycle   5  Pass 1  IDiag  1:
 E= -39.7257282698227     Delta-E=       -0.000000000877 Rises=F Damp=F
 DIIS: error= 1.73D-10 at cycle   5 NSaved=   5.
 NSaved= 5 IEnMin= 5 EnMin= -39.7257282698227     IErMin= 5 ErrMin= 1.73D-10
 ErrMax= 1.73D-10 EMaxC= 1.00D-01 BMatC= 2.68D-19 BMatP= 5.35D-10
 IDIUse=1 WtCom= 1.00D+00 WtEn= 0.00D+00
 Coeff-Com:  0.470D-06-0.429D-05-0.304D-04 0.248D-03 0.100D+01
 Coeff:      0.470D-06-0.429D-05-0.304D-04 0.248D-03 0.100D+01
 Gap=     1.216 Goal=   None    Shift=    0.000
 RMSDP=5.15D-11 MaxDP=1.70D-10 DE=-8.77D-10 OVMax= 0.00D+00

 SCF Done:  E(RHF) =  -39.7257282698     A.U. after    5 cycles
             Convg  =    0.5148D-10             -V/T =  2.0080
 KE= 3.940973145755D+01 PE=-1.185020216028D+02 EE= 2.607254100188D+01
 Leave Link  502 at Sun Aug 18 00:51:26 2024, MaxMem=   13107200 cpu:       0.1
 (Enter /programs/64bit/g09/g09-gfortran/bin/l801.exe)
 ExpMin= 1.69D-01 ExpMax= 7.16D+01 ExpMxC= 7.16D+01 IAcc=1 IRadAn=         1 AccDes= 0.00D+00
 HarFok:  IExCor=  205 AccDes= 0.00D+00 IRadAn=         1 IDoV=-2
 ScaDFX=  1.000000  1.000000  1.000000  1.000000
 Largest valence mixing into a core orbital is  1.74D-04
 Largest core mixing into a valence orbital is  1.20D-04
 Range of M.O.s used for correlation:     2     9
 NBasis=     9 NAE=     5 NBE=     5 NFC=     1 NFV=     0
 NROrb=      8 NOA=     4 NOB=     4 NVA=     4 NVB=     4
 Leave Link  801 at Sun Aug 18 00:51:27 2024, MaxMem=   13107200 cpu:       0.1
 (Enter /programs/64bit/g09/g09-gfortran/bin/l906.exe)
 Frozen-core derivative calculation, NFC=   1 NFV=   0.
 FulOut=F Deriv=T AODrv=T NAtomX=     5
   MMem=       10325  MDisk=           4 MDiskD=           4
  W3Min=         405 MinDsk=       51143 NBas6D=           9
 NBas2D=          51    NTT=          45    LW2=     2000000
    MDV=    13102498 MDiskM=       12850 NBas2p=          30
 Fully direct method using O(ONN) memory.
 IMap=   1   2   3   4   5
 JobTyp=1 Pass  1:  I=   2 to   5 NPSUse=  1 ParTrn=F ParDer=F DoDerP=T.
 Spin components of T(2) and E(2):
     alpha-alpha T2 =       0.5679953063D-03 E2=     -0.1525793859D-02
     alpha-beta  T2 =       0.2099652379D-01 E2=     -0.5427238611D-01
     beta-beta   T2 =       0.5679953063D-03 E2=     -0.1525793859D-02
 The integrals were generated   1 times.
 ANorm=    0.1011005695D+01
 E2 =    -0.5732397383D-01 EUMP2 =    -0.39783052243651D+02
 Leave Link  906 at Sun Aug 18 00:51:27 2024, MaxMem=   13107200 cpu:       0.1
 (Enter /programs/64bit/g09/g09-gfortran/bin/l1002.exe)
 Minotr:  Closed shell wavefunction.
          Computing MP2/KS-MP2 derivatives.
          Using Z-Vector for PSCF gradient.
          Skipping F1 and S1 gradient terms here.
          IDoAtm=11111
          Frozen-core window.
          Direct CPHF calculation.
          Differentiating once with respect to electric field.
                with respect to dipole field.
          Differentiating once with respect to nuclear coordinates.
          Using symmetry in CPHF.
          Requested convergence is 1.0D-10 RMS, and 1.0D-09 maximum.
          NewPWx=F KeepS1=T KeepF1=T KeepIn=T MapXYZ=F SortEE=F KeepMc=T.
          MDV=      13107146 using IRadAn=       0.
          Keep R1 ints in memory in canonical form, NReq=801790.
 Symmetry not used in FoFDir.
 MinBra= 0 MaxBra= 1 Meth= 1.
 IRaf=       0 NMat=   1 IRICut=       1 DoRegI=T DoRafI=F ISym2E= 0 JSym2E=0.
          Solving linear equations separately, MaxMat=       0.
          There are     1 degrees of freedom in the 1st order CPHF.  IDoFFX=0.
 LinEq1:  Iter=  0 NonCon=     1 RMS=2.12D-04 Max=5.01D-04
 AX will form     1 AO Fock derivatives at one time.
 LinEq1:  Iter=  1 NonCon=     1 RMS=2.17D-05 Max=7.88D-05
 LinEq1:  Iter=  2 NonCon=     1 RMS=2.76D-06 Max=9.14D-06
 LinEq1:  Iter=  3 NonCon=     0 RMS=6.65D-19 Max=2.43D-18
 Linear equations converged to 1.000D-10 1.000D-09 after     3 iterations.
 End of Minotr Frequency-dependent properties file   721 does not exist.
 End of Minotr Frequency-dependent properties file   722 does not exist.
 Leave Link 1002 at Sun Aug 18 00:51:27 2024, MaxMem=   13107200 cpu:       0.1
 (Enter /programs/64bit/g09/g09-gfortran/bin/l701.exe)
 Compute integral first derivatives.
 ... and contract with generalized density number  2.
 Leave Link  701 at Sun Aug 18 00:51:27 2024, MaxMem=   13107200 cpu:       0.1
 (Enter /programs/64bit/g09/g09-gfortran/bin/l702.exe)
 L702 exits ... SP integral derivatives will be done elsewhere.
 Leave Link  702 at Sun Aug 18 00:51:27 2024, MaxMem=   13107200 cpu:       0.0
 (Enter /programs/64bit/g09/g09-gfortran/bin/l703.exe)
 Compute integral first derivatives, UseDBF=F ICtDFT=           0.
 Integral derivatives from FoFDir, PRISM(SPDF).
 Calling FoFJK, ICntrl=      2127 FMM=F ISym2X=1 I1Cent= 0 IOpClX= 0 NMat=1 NMatS=1 NMatT=0.
 FoFCou: FMM=F IPFlag=           0 FMFlag=      100000 FMFlg1=         800
         NFxFlg=           0 DoJE=F BraDBF=F KetDBF=F FulRan=T
         Omega=  0.000000  0.000000  1.000000  0.000000  0.000000 ICntrl=    2127 IOpCl=  0
         NMat0=    1 NMatS0=    1 NMatT0=    0 NMatD0=    1 NMtDS0=    0 NMtDT0=    0
         I1Cent=           0 NGrid=           0.
 Petite list used in FoFCou.
 Leave Link  703 at Sun Aug 18 00:51:27 2024, MaxMem=   13107200 cpu:       0.1
 (Enter /programs/64bit/g09/g09-gfortran/bin/l716.exe)
 Dipole        = 1.11022302D-15 8.88178420D-16 6.66133815D-16
 ***** Axes restored to original set *****
 -------------------------------------------------------------------
 Center     Atomic                   Forces (Hartrees/Bohr)
 Number     Number              X              Y              Z
 -------------------------------------------------------------------
      1        6          -0.000000000   -0.000000000    0.000000000
      2        1          -0.000000000    0.000000000   -0.001861608
      3        1          -0.001755141    0.000000000    0.000620536
      4        1           0.000877570    0.001519996    0.000620536
      5        1           0.000877570   -0.001519996    0.000620536
 -------------------------------------------------------------------
 Cartesian Forces:  Max     0.001861608 RMS     0.000961330
 Leave Link  716 at Sun Aug 18 00:51:27 2024, MaxMem=   13107200 cpu:       0.0
 (Enter /programs/64bit/g09/g09-gfortran/bin/l103.exe)

 GradGradGradGradGradGradGradGradGradGradGradGradGradGradGradGradGradGrad
 Berny optimization.
 Using GEDIIS/GDIIS optimizer.
 Internal  Forces:  Max     0.001861608 RMS     0.000995071
 Search for a local minimum.
 Step number   2 out of a maximum of   24
 All quantities printed in internal units (Hartrees-Bohrs-Radians)
 RMS Force = .99507D-03 SwitMx=.10000D-02 MixMth= 2
 Mixed Optimization -- En-DIIS/RFO-DIIS
 Update second derivatives using D2CorX and points    1    2
 DE= -2.49D-04 DEPred=-3.35D-04 R= 7.43D-01
 SS=  1.41D+00  RLast= 4.38D-02 DXNew= 5.0454D-01 1.3142D-01
 Trust test= 7.43D-01 RLast= 4.38D-02 DXMaxT set to 3.00D-01
 The second derivative matrix:
                          R1        R2        R3        R4        A1
           R1           0.36954
           R2           0.02141   0.36954
           R3           0.02141   0.02141   0.36954
           R4           0.02141   0.02141   0.02141   0.36954
           A1           0.00000   0.00000   0.00000   0.00000   0.16000
           A2           0.00000   0.00000   0.00000   0.00000   0.00000
           A3          -0.00000  -0.00000  -0.00000  -0.00000  -0.00000
           A4          -0.00000  -0.00000  -0.00000  -0.00000  -0.00000
           A5           0.00000   0.00000   0.00000   0.00000   0.00000
           A6           0.00000   0.00000   0.00000   0.00000   0.00000
           D1           0.00000   0.00000   0.00000   0.00000   0.00000
           D2           0.00000   0.00000   0.00000   0.00000   0.00000
           D3           0.00000   0.00000   0.00000   0.00000   0.00000
           D4          -0.00000  -0.00000  -0.00000  -0.00000  -0.00000
                          A2        A3        A4        A5        A6
           A2           0.16000
           A3          -0.00000   0.16000
           A4          -0.00000   0.00000   0.16000
           A5           0.00000  -0.00000  -0.00000   0.16000
           A6           0.00000  -0.00000  -0.00000   0.00000   0.16000
           D1           0.00000  -0.00000  -0.00000   0.00000   0.00000
           D2           0.00000  -0.00000  -0.00000   0.00000   0.00000
           D3           0.00000  -0.00000  -0.00000   0.00000   0.00000
           D4          -0.00000   0.00000   0.00000  -0.00000  -0.00000
                          D1        D2        D3        D4
           D1           0.00235
           D2           0.00000   0.00235
           D3           0.00000   0.00000   0.00235
           D4          -0.00000  -0.00000  -0.00000   0.00235
 Use linear search instead of GDIIS.
     Eigenvalues ---    0.05086   0.05718   0.08643   0.16000   0.16000
     Eigenvalues ---    0.34813   0.34813   0.34813   0.433791000.00000
     Eigenvalues --- 1000.000001000.000001000.000001000.00000
 RFO step:  Lambda= 0.00000000D+00 EMin= 5.08565158D-02
 Quartic linear search produced a step of -0.20049.
 Iteration  1 RMS(Cart)=  0.00234739 RMS(Int)=  0.00000000
 Iteration  2 RMS(Cart)=  0.00000000 RMS(Int)=  0.00000000
 ClnCor:  largest displacement from symmetrization is 1.55D-14 for atom     3.
 Variable       Old X    -DE/DX   Delta X   Delta X   Delta X     New X
                                 (Linear)    (Quad)   (Total)
    R1        2.08171  -0.00186  -0.00439  -0.00000  -0.00439   2.07731
    R2        2.08171  -0.00186  -0.00439   0.00000  -0.00439   2.07731
    R3        2.08171  -0.00186  -0.00439  -0.00000  -0.00439   2.07731
    R4        2.08171  -0.00186  -0.00439  -0.00000  -0.00439   2.07731
    A1        1.91063   0.00000   0.00000   0.00000   0.00000   1.91063
    A2        1.91063  -0.00000  -0.00000   0.00000   0.00000   1.91063
    A3        1.91063   0.00000   0.00000   0.00000   0.00000   1.91063
    A4        1.91063   0.00000   0.00000   0.00000   0.00000   1.91063
    A5        1.91063  -0.00000  -0.00000  -0.00000  -0.00000   1.91063
    A6        1.91063   0.00000   0.00000   0.00000   0.00000   1.91063
    D1       -2.09440  -0.00000  -0.00000  -0.00000   0.00000  -2.09440
    D2        2.09440  -0.00000   0.00000   0.00000   0.00000   2.09440
    D3       -2.09440  -0.00000   0.00000  -0.00000   0.00000  -2.09440
    D4        2.09440  -0.00000   0.00000  -0.00000   0.00000   2.09440
         Item               Value     Threshold  Converged?
 Maximum Force            0.001862     0.000450     NO 
 RMS     Force            0.000995     0.000300     NO 
 Maximum Displacement     0.004392     0.001800     NO 
 RMS     Displacement     0.002347     0.001200     NO 
 Predicted change in Energy=-1.596964D-05
 GradGradGradGradGradGradGradGradGradGradGradGradGradGradGradGradGradGrad

 Leave Link  103 at Sun Aug 18 00:51:27 2024, MaxMem=   13107200 cpu:       0.0
 (Enter /programs/64bit/g09/g09-gfortran/bin/l202.exe)
                          Input orientation:                          
 ---------------------------------------------------------------------
 Center     Atomic      Atomic             Coordinates (Angstroms)
 Number     Number       Type             X           Y           Z
 ---------------------------------------------------------------------
      1          6           0        0.000000   -0.000000   -0.000000
      2          1           0        0.000000    0.000000    1.099267
      3          1           0        1.036399   -0.000000   -0.366422
      4          1           0       -0.518199   -0.897548   -0.366422
      5          1           0       -0.518199    0.897548   -0.366422
 ---------------------------------------------------------------------
                    Distance matrix (angstroms):
                    1          2          3          4          5
     1  C    0.000000
     2  H    1.099267   0.000000
     3  H    1.099267   1.795096   0.000000
     4  H    1.099267   1.795096   1.795096   0.000000
     5  H    1.099267   1.795096   1.795096   1.795096   0.000000
 Stoichiometry    CH4
 Framework group  TD[O(C),4C3(H)]
 Deg. of freedom     1
 Prev. full point group           TD      NOp  24
 Prev. largest Abelian subgroup   D2      NOp   4
       concise Abelian subgroup   D2      NOp   4
                   Standard orientation:
 ---------------------------------------------------------------------
 Center     Atomic                     Coordinates (Angstroms)
 Number     Number                        X           Y           Z
 ---------------------------------------------------------------------
      1          6                    0.000000    0.000000    0.000000
      2          1                    0.215794    0.809811    0.711355
      3          1                   -0.616496   -0.765515    0.492248
      4          1                   -0.542706    0.407035   -0.864974
      5          1                    0.943408   -0.451331   -0.338629
 ---------------------------------------------------------------------
 TstSym:  Max error for IOp= 19 IAt=    2 Err= 1.37D+00
 TstSym:  IOp= 25 I=    6 IP=    4 Err= 1.37D+00
  CI=  0.000000000000D+00  0.000000000000D+00  0.000000000000D+00
   T=  4.077924470916D-01 -1.344266901062D+00 -1.530321673605D+00
 CIP= -1.025566579434D+00  7.691838702378D-01 -1.634564764949D+00
 Unable to use previous symmetry information.  Redetermining point group.
 No symmetry information on checkpoint file.  Reassigning symmetry.
 Symm:  InNGrp=TD   InAxis=0.
 Stoichiometry    CH4
 Framework group  TD[O(C),4C3(H)]
 Deg. of freedom     1
 Full point group                 TD      NOp  24
 Largest Abelian subgroup         D2      NOp   4
 Largest concise Abelian subgroup D2      NOp   4
                         Standard orientation:                         
 ---------------------------------------------------------------------
 Center     Atomic      Atomic             Coordinates (Angstroms)
 Number     Number       Type             X           Y           Z
 ---------------------------------------------------------------------
      1          6           0        0.000000    0.000000    0.000000
      2          1           0        0.634662    0.634662    0.634662
      3          1           0       -0.634662   -0.634662    0.634662
      4          1           0       -0.634662    0.634662   -0.634662
      5          1           0        0.634662   -0.634662   -0.634662
 ---------------------------------------------------------------------
 Rotational constants (GHZ):    155.6169316    155.6169316    155.6169316
 Leave Link  202 at Sun Aug 18 00:51:27 2024, MaxMem=   13107200 cpu:       0.0
 (Enter /programs/64bit/g09/g09-gfortran/bin/l301.exe)
 Standard basis: STO-3G (5D, 7F)
 Ernie: Thresh=  0.10000D-02 Tol=  0.10000D-05 Strict=F.
 There are     3 symmetry adapted basis functions of A   symmetry.
 There are     2 symmetry adapted basis functions of B1  symmetry.
 There are     2 symmetry adapted basis functions of B2  symmetry.
 There are     2 symmetry adapted basis functions of B3  symmetry.
 Integral buffers will be    131072 words long.
 Raffenetti 1 integral format.
 Two-electron integral symmetry is turned on.
     9 basis functions,    27 primitive gaussians,     9 cartesian basis functions
     5 alpha electrons        5 beta electrons
       nuclear repulsion energy        13.3221252712 Hartrees.
 IExCor=    0 DFT=F Ex=HF Corr=None ExCW=0 ScaHFX=  1.000000
 ScaDFX=  1.000000  1.000000  1.000000  1.000000 ScalE2=  1.000000  1.000000
 IRadAn=      0 IRanWt=     -1 IRanGd=            0 ICorTp=0
 NAtoms=    5 NActive=    5 NUniq=    2 SFac= 3.00D+00 NAtFMM=   80 NAOKFM=F Big=F
 Leave Link  301 at Sun Aug 18 00:51:27 2024, MaxMem=   13107200 cpu:       0.1
 (Enter /programs/64bit/g09/g09-gfortran/bin/l302.exe)
 NPDir=0 NMtPBC=     1 NCelOv=     1 NCel=       1 NClECP=     1 NCelD=      1
         NCelK=      1 NCelE2=     1 NClLst=     1 CellRange=     0.0.
 One-electron integrals computed using PRISM.
 One-electron integral symmetry used in STVInt
 NBasis=     9 RedAO= T  NBF=     3     2     2     2
 NBsUse=     9 1.00D-06 NBFU=     3     2     2     2
 Leave Link  302 at Sun Aug 18 00:51:27 2024, MaxMem=   13107200 cpu:       0.1
 (Enter /programs/64bit/g09/g09-gfortran/bin/l303.exe)
 DipDrv:  MaxL=1.
 Leave Link  303 at Sun Aug 18 00:51:27 2024, MaxMem=   13107200 cpu:       0.0
 (Enter /programs/64bit/g09/g09-gfortran/bin/l401.exe)
 Initial guess read from the read-write file.
 B after Tr=     0.000000    0.000000    0.000000
         Rot=    1.000000    0.000000    0.000000    0.000000 Ang=   0.00 deg.
 Guess basis will be translated and rotated to current coordinates.
 Initial guess orbital symmetries:
       Occupied  (A1) (A1) (T2) (T2) (T2)
       Virtual   (T2) (T2) (T2) (A1)
 The electronic state of the initial guess is 1-A1.
 Leave Link  401 at Sun Aug 18 00:51:28 2024, MaxMem=   13107200 cpu:       0.1
 (Enter /programs/64bit/g09/g09-gfortran/bin/l502.exe)
 Closed shell SCF:
 Requested convergence on RMS density matrix=1.00D-08 within 128 cycles.
 Requested convergence on MAX density matrix=1.00D-06.
 Requested convergence on             energy=1.00D-06.
 No special actions if energy rises.
 Using DIIS extrapolation, IDIIS=  1040.
 Integral symmetry usage will be decided dynamically.
 Keep R1 ints in memory in canonical form, NReq=820960.
 IEnd=       19911 IEndB=       19911 NGot=    13107200 MDV=    13103329
 LenX=    13103329 LenY=    13102447
 Symmetry not used in FoFDir.
 MinBra= 0 MaxBra= 1 Meth= 1.
 IRaf=       0 NMat=   1 IRICut=       1 DoRegI=T DoRafI=F ISym2E= 0 JSym2E=0.

 Cycle   1  Pass 1  IDiag  1:
 E= -39.7259905427939    
 DIIS: error= 2.11D-04 at cycle   1 NSaved=   1.
 NSaved= 1 IEnMin= 1 EnMin= -39.7259905427939     IErMin= 1 ErrMin= 2.11D-04
 ErrMax= 2.11D-04 EMaxC= 1.00D-01 BMatC= 7.60D-07 BMatP= 7.60D-07
 IDIUse=3 WtCom= 9.98D-01 WtEn= 2.11D-03
 Coeff-Com:  0.100D+01
 Coeff-En:   0.100D+01
 Coeff:      0.100D+01
 Gap=     1.219 Goal=   None    Shift=    0.000
 RMSDP=1.22D-04 MaxDP=4.08D-04              OVMax= 0.00D+00

 Cycle   2  Pass 1  IDiag  1:
 E= -39.7259913202569     Delta-E=       -0.000000777463 Rises=F Damp=F
 DIIS: error= 7.30D-05 at cycle   2 NSaved=   2.
 NSaved= 2 IEnMin= 2 EnMin= -39.7259913202569     IErMin= 2 ErrMin= 7.30D-05
 ErrMax= 7.30D-05 EMaxC= 1.00D-01 BMatC= 2.94D-08 BMatP= 7.60D-07
 IDIUse=1 WtCom= 1.00D+00 WtEn= 0.00D+00
 Coeff-Com:  0.347D-01 0.965D+00
 Coeff:      0.347D-01 0.965D+00
 Gap=     1.219 Goal=   None    Shift=    0.000
 RMSDP=2.53D-05 MaxDP=1.75D-04 DE=-7.77D-07 OVMax= 0.00D+00

 Cycle   3  Pass 1  IDiag  1:
 E= -39.7259913518509     Delta-E=       -0.000000031594 Rises=F Damp=F
 DIIS: error= 7.38D-06 at cycle   3 NSaved=   3.
 NSaved= 3 IEnMin= 3 EnMin= -39.7259913518509     IErMin= 3 ErrMin= 7.38D-06
 ErrMax= 7.38D-06 EMaxC= 1.00D-01 BMatC= 9.01D-10 BMatP= 2.94D-08
 IDIUse=1 WtCom= 1.00D+00 WtEn= 0.00D+00
 Coeff-Com: -0.240D-01-0.175D-01 0.104D+01
 Coeff:     -0.240D-01-0.175D-01 0.104D+01
 Gap=     1.219 Goal=   None    Shift=    0.000
 RMSDP=5.49D-06 MaxDP=2.42D-05 DE=-3.16D-08 OVMax= 0.00D+00

 Cycle   4  Pass 1  IDiag  1:
 E= -39.7259913534479     Delta-E=       -0.000000001597 Rises=F Damp=F
 DIIS: error= 1.74D-06 at cycle   4 NSaved=   4.
 NSaved= 4 IEnMin= 4 EnMin= -39.7259913534479     IErMin= 4 ErrMin= 1.74D-06
 ErrMax= 1.74D-06 EMaxC= 1.00D-01 BMatC= 2.05D-11 BMatP= 9.01D-10
 IDIUse=1 WtCom= 1.00D+00 WtEn= 0.00D+00
 Coeff-Com:  0.265D-02-0.181D-01-0.160D+00 0.118D+01
 Coeff:      0.265D-02-0.181D-01-0.160D+00 0.118D+01
 Gap=     1.219 Goal=   None    Shift=    0.000
 RMSDP=9.66D-07 MaxDP=6.91D-06 DE=-1.60D-09 OVMax= 0.00D+00

 Cycle   5  Pass 1  IDiag  1:
 E= -39.7259913534814     Delta-E=       -0.000000000034 Rises=F Damp=F
 DIIS: error= 6.65D-12 at cycle   5 NSaved=   5.
 NSaved= 5 IEnMin= 5 EnMin= -39.7259913534814     IErMin= 5 ErrMin= 6.65D-12
 ErrMax= 6.65D-12 EMaxC= 1.00D-01 BMatC= 3.94D-22 BMatP= 2.05D-11
 IDIUse=1 WtCom= 1.00D+00 WtEn= 0.00D+00
 Coeff-Com: -0.213D-06 0.167D-05 0.132D-04-0.103D-03 0.100D+01
 Coeff:     -0.213D-06 0.167D-05 0.132D-04-0.103D-03 0.100D+01
 Gap=     1.219 Goal=   None    Shift=    0.000
 RMSDP=1.95D-12 MaxDP=6.44D-12 DE=-3.35D-11 OVMax= 0.00D+00

 SCF Done:  E(RHF) =  -39.7259913535     A.U. after    5 cycles
             Convg  =    0.1954D-11             -V/T =  2.0079
 KE= 3.941649185434D+01 PE=-1.185582008953D+02 EE= 2.609359241634D+01
 Leave Link  502 at Sun Aug 18 00:51:28 2024, MaxMem=   13107200 cpu:       0.1
 (Enter /programs/64bit/g09/g09-gfortran/bin/l801.exe)
 ExpMin= 1.69D-01 ExpMax= 7.16D+01 ExpMxC= 7.16D+01 IAcc=1 IRadAn=         1 AccDes= 0.00D+00
 HarFok:  IExCor=  205 AccDes= 0.00D+00 IRadAn=         1 IDoV=-2
 ScaDFX=  1.000000  1.000000  1.000000  1.000000
 Largest valence mixing into a core orbital is  1.74D-04
 Largest core mixing into a valence orbital is  1.20D-04
 Range of M.O.s used for correlation:     2     9
 NBasis=     9 NAE=     5 NBE=     5 NFC=     1 NFV=     0
 NROrb=      8 NOA=     4 NOB=     4 NVA=     4 NVB=     4
 Leave Link  801 at Sun Aug 18 00:51:28 2024, MaxMem=   13107200 cpu:       0.1
 (Enter /programs/64bit/g09/g09-gfortran/bin/l906.exe)
 Frozen-core derivative calculation, NFC=   1 NFV=   0.
 FulOut=F Deriv=T AODrv=T NAtomX=     5
   MMem=       10325  MDisk=           4 MDiskD=           4
  W3Min=         405 MinDsk=       51143 NBas6D=           9
 NBas2D=          51    NTT=          45    LW2=     2000000
    MDV=    13102498 MDiskM=       12850 NBas2p=          30
 Fully direct method using O(ONN) memory.
 IMap=   1   2   3   4   5
 JobTyp=1 Pass  1:  I=   2 to   5 NPSUse=  1 ParTrn=F ParDer=F DoDerP=T.
 Spin components of T(2) and E(2):
     alpha-alpha T2 =       0.5611995797D-03 E2=     -0.1511843888D-02
     alpha-beta  T2 =       0.2085847291D-01 E2=     -0.5405358342D-01
     beta-beta   T2 =       0.5611995797D-03 E2=     -0.1511843888D-02
 The integrals were generated   1 times.
 ANorm=    0.1010930696D+01
 E2 =    -0.5707727120D-01 EUMP2 =    -0.39783068624678D+02
 Leave Link  906 at Sun Aug 18 00:51:28 2024, MaxMem=   13107200 cpu:       0.1
 (Enter /programs/64bit/g09/g09-gfortran/bin/l1002.exe)
 Minotr:  Closed shell wavefunction.
          Computing MP2/KS-MP2 derivatives.
          Using Z-Vector for PSCF gradient.
          Skipping F1 and S1 gradient terms here.
          IDoAtm=11111
          Frozen-core window.
          Direct CPHF calculation.
          Differentiating once with respect to electric field.
                with respect to dipole field.
          Differentiating once with respect to nuclear coordinates.
          Using symmetry in CPHF.
          Requested convergence is 1.0D-10 RMS, and 1.0D-09 maximum.
          NewPWx=F KeepS1=T KeepF1=T KeepIn=T MapXYZ=F SortEE=F KeepMc=T.
          MDV=      13107146 using IRadAn=       0.
          Keep R1 ints in memory in canonical form, NReq=801790.
 Symmetry not used in FoFDir.
 MinBra= 0 MaxBra= 1 Meth= 1.
 IRaf=       0 NMat=   1 IRICut=       1 DoRegI=T DoRafI=F ISym2E= 0 JSym2E=0.
          Solving linear equations separately, MaxMat=       0.
          There are     1 degrees of freedom in the 1st order CPHF.  IDoFFX=0.
 LinEq1:  Iter=  0 NonCon=     1 RMS=2.00D-04 Max=4.65D-04
 AX will form     1 AO Fock derivatives at one time.
 LinEq1:  Iter=  1 NonCon=     1 RMS=1.87D-05 Max=6.07D-05
 LinEq1:  Iter=  2 NonCon=     1 RMS=2.39D-06 Max=6.82D-06
 LinEq1:  Iter=  3 NonCon=     0 RMS=2.39D-19 Max=8.32D-19
 Linear equations converged to 1.000D-10 1.000D-09 after     3 iterations.
 End of Minotr Frequency-dependent properties file   721 does not exist.
 End of Minotr Frequency-dependent properties file   722 does not exist.
 Leave Link 1002 at Sun Aug 18 00:51:28 2024, MaxMem=   13107200 cpu:       0.1
 (Enter /programs/64bit/g09/g09-gfortran/bin/l701.exe)
 Compute integral first derivatives.
 ... and contract with generalized density number  2.
 Leave Link  701 at Sun Aug 18 00:51:28 2024, MaxMem=   13107200 cpu:       0.1
 (Enter /programs/64bit/g09/g09-gfortran/bin/l702.exe)
 L702 exits ... SP integral derivatives will be done elsewhere.
 Leave Link  702 at Sun Aug 18 00:51:28 2024, MaxMem=   13107200 cpu:       0.0
 (Enter /programs/64bit/g09/g09-gfortran/bin/l703.exe)
 Compute integral first derivatives, UseDBF=F ICtDFT=           0.
 Integral derivatives from FoFDir, PRISM(SPDF).
 Calling FoFJK, ICntrl=      2127 FMM=F ISym2X=1 I1Cent= 0 IOpClX= 0 NMat=1 NMatS=1 NMatT=0.
 FoFCou: FMM=F IPFlag=           0 FMFlag=      100000 FMFlg1=         800
         NFxFlg=           0 DoJE=F BraDBF=F KetDBF=F FulRan=T
         Omega=  0.000000  0.000000  1.000000  0.000000  0.000000 ICntrl=    2127 IOpCl=  0
         NMat0=    1 NMatS0=    1 NMatT0=    0 NMatD0=    1 NMtDS0=    0 NMtDT0=    0
         I1Cent=           0 NGrid=           0.
 Petite list used in FoFCou.
 Leave Link  703 at Sun Aug 18 00:51:28 2024, MaxMem=   13107200 cpu:       0.1
 (Enter /programs/64bit/g09/g09-gfortran/bin/l716.exe)
 Dipole        = 4.44089210D-16 2.22044605D-16-2.22044605D-16
 ***** Axes restored to original set *****
 -------------------------------------------------------------------
 Center     Atomic                   Forces (Hartrees/Bohr)
 Number     Number              X              Y              Z
 -------------------------------------------------------------------
      1        6           0.000000000   -0.000000000   -0.000000000
      2        1           0.000000000   -0.000000000    0.000000114
      3        1           0.000000107   -0.000000000   -0.000000038
      4        1          -0.000000054   -0.000000093   -0.000000038
      5        1          -0.000000054    0.000000093   -0.000000038
 -------------------------------------------------------------------
 Cartesian Forces:  Max     0.000000114 RMS     0.000000059
 Leave Link  716 at Sun Aug 18 00:51:28 2024, MaxMem=   13107200 cpu:       0.0
 (Enter /programs/64bit/g09/g09-gfortran/bin/l103.exe)

 GradGradGradGradGradGradGradGradGradGradGradGradGradGradGradGradGradGrad
 Berny optimization.
 Using GEDIIS/GDIIS optimizer.
 Internal  Forces:  Max     0.000000114 RMS     0.000000061
 Search for a local minimum.
 Step number   3 out of a maximum of   24
 All quantities printed in internal units (Hartrees-Bohrs-Radians)
 RMS Force = .60741D-07 SwitMx=.10000D-02 MixMth= 2
 Mixed Optimization -- En-DIIS/RFO-DIIS
 Swaping is turned off.
 Update second derivatives using D2CorX and points    1    2    3
 DE= -1.64D-05 DEPred=-1.60D-05 R= 1.03D+00
 SS=  1.41D+00  RLast= 8.78D-03 DXNew= 5.0454D-01 2.6349D-02
 Trust test= 1.03D+00 RLast= 8.78D-03 DXMaxT set to 3.00D-01
 The second derivative matrix:
                          R1        R2        R3        R4        A1
           R1           0.36708
           R2           0.01895   0.36708
           R3           0.01895   0.01895   0.36708
           R4           0.01895   0.01895   0.01895   0.36708
           A1          -0.00000  -0.00000  -0.00000  -0.00000   0.16000
           A2           0.00000   0.00000   0.00000   0.00000  -0.00000
           A3          -0.00000  -0.00000  -0.00000  -0.00000   0.00000
           A4          -0.00000  -0.00000  -0.00000  -0.00000   0.00000
           A5           0.00000   0.00000   0.00000   0.00000  -0.00000
           A6           0.00000   0.00000   0.00000   0.00000  -0.00000
           D1           0.00000   0.00000   0.00000   0.00000  -0.00000
           D2           0.00000   0.00000   0.00000   0.00000  -0.00000
           D3           0.00000   0.00000   0.00000   0.00000  -0.00000
           D4          -0.00000  -0.00000  -0.00000  -0.00000   0.00000
                          A2        A3        A4        A5        A6
           A2           0.16000
           A3          -0.00000   0.16000
           A4          -0.00000   0.00000   0.16000
           A5           0.00000  -0.00000  -0.00000   0.16000
           A6           0.00000  -0.00000  -0.00000   0.00000   0.16000
           D1           0.00000  -0.00000  -0.00000   0.00000   0.00000
           D2           0.00000  -0.00000  -0.00000   0.00000   0.00000
           D3           0.00000  -0.00000  -0.00000   0.00000   0.00000
           D4          -0.00000   0.00000   0.00000  -0.00000  -0.00000
                          D1        D2        D3        D4
           D1           0.00235
           D2           0.00000   0.00235
           D3           0.00000   0.00000   0.00235
           D4          -0.00000  -0.00000  -0.00000   0.00235
     Eigenvalues ---    0.05086   0.05718   0.08643   0.16000   0.16000
     Eigenvalues ---    0.34813   0.34813   0.34813   0.423931000.00000
     Eigenvalues --- 1000.000001000.000001000.000001000.00000
 En-DIIS/RFO-DIIS IScMMF=        0 using points:     3    2
 RFO step:  Lambda= 0.00000000D+00.
 Iteration  1 RMS(Cart)=  0.00000014 RMS(Int)=  0.00000000
 ClnCor:  largest displacement from symmetrization is 2.99D-14 for atom     3.
 Variable       Old X    -DE/DX   Delta X   Delta X   Delta X     New X
                                  (DIIS)     (GDIIS)  (Total)
    R1        2.07731   0.00000   0.00000   0.00000   0.00000   2.07731
    R2        2.07731   0.00000   0.00000   0.00000   0.00000   2.07731
    R3        2.07731   0.00000   0.00000   0.00000   0.00000   2.07731
    R4        2.07731   0.00000   0.00000   0.00000   0.00000   2.07731
    A1        1.91063   0.00000   0.00000   0.00000   0.00000   1.91063
    A2        1.91063   0.00000   0.00000   0.00000   0.00000   1.91063
    A3        1.91063  -0.00000   0.00000  -0.00000   0.00000   1.91063
    A4        1.91063  -0.00000   0.00000  -0.00000  -0.00000   1.91063
    A5        1.91063   0.00000   0.00000   0.00000  -0.00000   1.91063
    A6        1.91063   0.00000   0.00000   0.00000   0.00000   1.91063
    D1       -2.09440   0.00000   0.00000   0.00000  -0.00000  -2.09440
    D2        2.09440   0.00000   0.00000   0.00000   0.00000   2.09440
    D3       -2.09440   0.00000   0.00000  -0.00000   0.00000  -2.09440
    D4        2.09440  -0.00000   0.00000  -0.00000   0.00000   2.09440
         Item               Value     Threshold  Converged?
 Maximum Force            0.000000     0.000450     YES
 RMS     Force            0.000000     0.000300     YES
 Maximum Displacement     0.000000     0.001800     YES
 RMS     Displacement     0.000000     0.001200     YES
 Predicted change in Energy=-6.092105D-14
 Optimization completed.
    -- Stationary point found.
                           ----------------------------
                           !   Optimized Parameters   !
                           ! (Angstroms and Degrees)  !
 --------------------------                            --------------------------
 ! Name  Definition              Value          Derivative Info.                !
 --------------------------------------------------------------------------------
 ! R1    R(1,2)                  1.0993         -DE/DX =    0.0                 !
 ! R2    R(1,3)                  1.0993         -DE/DX =    0.0                 !
 ! R3    R(1,4)                  1.0993         -DE/DX =    0.0                 !
 ! R4    R(1,5)                  1.0993         -DE/DX =    0.0                 !
 ! A1    A(2,1,3)              109.4712         -DE/DX =    0.0                 !
 ! A2    A(2,1,4)              109.4712         -DE/DX =    0.0                 !
 ! A3    A(2,1,5)              109.4712         -DE/DX =    0.0                 !
 ! A4    A(3,1,4)              109.4712         -DE/DX =    0.0                 !
 ! A5    A(3,1,5)              109.4712         -DE/DX =    0.0                 !
 ! A6    A(4,1,5)              109.4712         -DE/DX =    0.0                 !
 ! D1    D(2,1,4,3)           -120.0            -DE/DX =    0.0                 !
 ! D2    D(2,1,5,3)            120.0            -DE/DX =    0.0                 !
 ! D3    D(2,1,5,4)           -120.0            -DE/DX =    0.0                 !
 ! D4    D(3,1,5,4)            120.0            -DE/DX =    0.0                 !
 --------------------------------------------------------------------------------
 GradGradGradGradGradGradGradGradGradGradGradGradGradGradGradGradGradGrad

 Largest change from initial coordinates is atom    2       0.009 Angstoms.
 Leave Link  103 at Sun Aug 18 00:51:28 2024, MaxMem=   13107200 cpu:       0.0
 (Enter /programs/64bit/g09/g09-gfortran/bin/l202.exe)
                          Input orientation:                          
 ---------------------------------------------------------------------
 Center     Atomic      Atomic             Coordinates (Angstroms)
 Number     Number       Type             X           Y           Z
 ---------------------------------------------------------------------
      1          6           0        0.000000   -0.000000    0.000000
      2          1           0       -0.000000   -0.000000    1.099267
      3          1           0        1.036399   -0.000000   -0.366422
      4          1           0       -0.518199   -0.897548   -0.366422
      5          1           0       -0.518199    0.897548   -0.366422
 ---------------------------------------------------------------------
                    Distance matrix (angstroms):
                    1          2          3          4          5
     1  C    0.000000
     2  H    1.099267   0.000000
     3  H    1.099267   1.795096   0.000000
     4  H    1.099267   1.795096   1.795096   0.000000
     5  H    1.099267   1.795096   1.795096   1.795096   0.000000
 Stoichiometry    CH4
 Framework group  TD[O(C),4C3(H)]
 Deg. of freedom     1
 Prev. full point group           TD      NOp  24
[...]
     5   1     0.02  -0.02  -0.03     0.41  -0.41  -0.41     0.28  -0.29  -0.28

 -------------------
 - Thermochemistry -
 -------------------
 Temperature   298.150 Kelvin.  Pressure   1.00000 Atm.
 Atom     1 has atomic number  6 and mass  12.00000
 Atom     2 has atomic number  1 and mass   1.00783
 Atom     3 has atomic number  1 and mass   1.00783
 Atom     4 has atomic number  1 and mass   1.00783
 Atom     5 has atomic number  1 and mass   1.00783
 Molecular mass:    16.03130 amu.
 Principal axes and moments of inertia in atomic units:
                           1         2         3
     Eigenvalues --    11.59733  11.59733  11.59733
           X            0.93419   0.00000   0.35679
           Y           -0.35679   0.00000   0.93419
           Z            0.00000   1.00000  -0.00000
 This molecule is a spherical top.
 Rotational symmetry number 12.
 Rotational temperatures (Kelvin)      7.46843     7.46843     7.46843
 Rotational constants (GHZ):         155.61693   155.61693   155.61693
 Zero-point vibrational energy     134557.9 (Joules/Mol)
                                   32.16010 (Kcal/Mol)
 Vibrational temperatures:   2268.97  2268.97  2268.97  2603.54  2603.54
          (Kelvin)           4810.56  5180.87  5180.87  5180.87
 
 Zero-point correction=                           0.051250 (Hartree/Particle)
 Thermal correction to Energy=                    0.054096
 Thermal correction to Enthalpy=                  0.055040
 Thermal correction to Gibbs Free Energy=         0.033915
 Sum of electronic and zero-point Energies=            -39.731818
 Sum of electronic and thermal Energies=               -39.728972
 Sum of electronic and thermal Enthalpies=             -39.728028
 Sum of electronic and thermal Free Energies=          -39.749154
 
                     E (Thermal)             CV                S
                      KCal/Mol        Cal/Mol-Kelvin    Cal/Mol-Kelvin
 Total                   33.946              6.182             44.463
 Electronic               0.000              0.000              0.000
 Translational            0.889              2.981             34.261
 Rotational               0.889              2.981             10.170
 Vibrational             32.168              0.220              0.032
                       Q            Log10(Q)             Ln(Q)
 Total Bot       0.251424D-15        -15.599593        -35.919390
 Total V=0       0.941665D+08          7.973896         18.360575
 Vib (Bot)       0.267483D-23        -23.572703        -54.278155
 Vib (V=0)       0.100181D+01          0.000786          0.001809
 Electronic      0.100000D+01          0.000000          0.000000
 Translational   0.252295D+07          6.401908         14.740939
 Rotational      0.372565D+02          1.571202          3.617827
 
                                          methane with imposed symmetry and STO-3
 G basis set
                                                             IR Spectrum
 
      3        3                                                     1       1                                                       
      6        3                                                     8       5                                                       
      0        4                                                     1       7                                                       
      1        4                                                     0       7                                                       
 
      X                                                                      X                                                       
      X                                                                      X                                                       
      X                                                                      X                                                       
      X                                                                      X                                                       
      X                                                                      X                                                       
                                                                             X                                                       
                                                                             X                                                       
                                                                             X                                                       
                                                                             X                                                       
                                                                             X                                                       
                                                                             X                                                       
                                                                             X                                                       
                                                                             X                                                       
                                                                             X                                                       
                                                                             X                                                       
                                                                             X                                                       
                                                                             X                                                       
                                                                             X                                                       
                                                                             X                                                       
                                                                             X                                                       
 
 ***** Axes restored to original set *****
 -------------------------------------------------------------------
 Center     Atomic                   Forces (Hartrees/Bohr)
 Number     Number              X              Y              Z
 -------------------------------------------------------------------
      1        6           0.000000000   -0.000000000    0.000000000
      2        1          -0.000000000   -0.000000000    0.000000114
      3        1           0.000000107    0.000000000   -0.000000038
      4        1          -0.000000054   -0.000000093   -0.000000038
      5        1          -0.000000054    0.000000093   -0.000000038
 -------------------------------------------------------------------
 Cartesian Forces:  Max     0.000000114 RMS     0.000000059
 Force constants in Cartesian coordinates: 
                1             2             3             4             5 
      1  0.748646D+00
      2  0.000000D+00  0.748646D+00
      3  0.000000D+00  0.000000D+00  0.748646D+00
      4 -0.679955D-01  0.000000D+00  0.000000D+00  0.608478D-01
      5  0.000000D+00 -0.679955D-01  0.000000D+00  0.000000D+00  0.608478D-01
      6  0.000000D+00  0.000000D+00 -0.425493D+00  0.000000D+00  0.000000D+00
      7 -0.385771D+00  0.000000D+00  0.112351D+00  0.636092D-02  0.000000D+00
      8  0.000000D+00 -0.679955D-01  0.000000D+00  0.000000D+00 -0.159582D-02
      9  0.112351D+00  0.000000D+00 -0.107717D+00  0.413412D-01  0.000000D+00
     10 -0.147439D+00 -0.137601D+00 -0.561753D-01  0.393365D-03  0.344537D-02
     11 -0.137601D+00 -0.306327D+00 -0.972985D-01  0.344537D-02  0.437174D-02
     12 -0.561753D-01 -0.972985D-01 -0.107717D+00 -0.206706D-01 -0.358026D-01
     13 -0.147439D+00  0.137601D+00 -0.561753D-01  0.393365D-03 -0.344537D-02
     14  0.137601D+00 -0.306327D+00  0.972985D-01 -0.344537D-02  0.437174D-02
     15 -0.561753D-01  0.972985D-01 -0.107717D+00 -0.206706D-01  0.358026D-01
                6             7             8             9            10 
      6  0.442222D+00
      7 -0.757756D-02  0.399847D+00
      8  0.000000D+00  0.000000D+00  0.608478D-01
      9 -0.557634D-02 -0.119854D+00  0.000000D+00  0.103223D+00
     10  0.378878D-02 -0.102185D-01 -0.326065D-01 -0.169188D-01  0.145598D+00
     11  0.656236D-02  0.733551D-02  0.437174D-02  0.106087D-02  0.146791D+00
     12 -0.557634D-02  0.754064D-02  0.151825D-01  0.503551D-02  0.599272D-01
     13  0.378878D-02 -0.102185D-01  0.326065D-01 -0.169188D-01  0.116668D-01
     14 -0.656236D-02 -0.733551D-02  0.437174D-02 -0.106087D-02  0.199710D-01
     15 -0.557634D-02  0.754064D-02 -0.151825D-01  0.503551D-02  0.937812D-02
               11            12            13            14            15 
     11  0.315097D+00
     12  0.103797D+00  0.103223D+00
     13 -0.199710D-01  0.937812D-02  0.145598D+00
     14 -0.175136D-01  0.141216D-01 -0.146791D+00  0.315097D+00
     15 -0.141216D-01  0.503551D-02  0.599272D-01 -0.103797D+00  0.103223D+00
 Force constants in internal coordinates: 
                1             2             3             4             5 
      1  0.442222D+00
      2 -0.528541D-02  0.442222D+00
      3 -0.528541D-02 -0.528541D-02  0.442222D+00
      4 -0.528541D-02 -0.528541D-02 -0.528541D-02  0.442222D+00
      5  0.178266D-02  0.178266D-02 -0.111934D-02 -0.244597D-02  0.267312D-01
      6  0.279385D-02 -0.720995D-03  0.310929D-02 -0.518215D-02 -0.117260D-01
      7  0.545973D-02 -0.438185D-02 -0.485049D-02  0.377261D-02 -0.176649D-01
      8 -0.720995D-03  0.279385D-02  0.310929D-02 -0.518215D-02 -0.117260D-01
      9 -0.438185D-02  0.545973D-02 -0.485049D-02  0.377261D-02 -0.176649D-01
     10 -0.493341D-02 -0.493341D-02  0.460175D-02  0.526506D-02  0.320504D-01
     11 -0.345267D-02 -0.345267D-02 -0.243718D-02  0.934251D-02 -0.183776D-01
     12  0.284337D-02  0.284337D-02 -0.731153D-02  0.162478D-02  0.111040D-01
     13 -0.374407D-02  0.658744D-02 -0.365576D-02  0.812392D-03  0.555201D-02
     14 -0.658744D-02  0.374407D-02  0.365576D-02 -0.812392D-03 -0.555201D-02
                6             7             8             9            10 
      6  0.505342D-01
      7 -0.306311D-01  0.987193D-01
      8 -0.256342D-02  0.331389D-01  0.505342D-01
      9  0.331389D-01 -0.476379D-01 -0.306311D-01  0.987193D-01
     10 -0.387526D-01 -0.359244D-01 -0.387526D-01 -0.359244D-01  0.117304D+00
     11 -0.150146D-01  0.200992D-01 -0.150146D-01  0.200992D-01  0.820845D-02
     12 -0.128256D-01  0.964593D-02 -0.128256D-01  0.964593D-02 -0.474465D-02
     13 -0.194028D-01 -0.938651D-03  0.657721D-02  0.105846D-01 -0.237232D-02
     14 -0.657721D-02 -0.105846D-01  0.194028D-01  0.938651D-03  0.237232D-02
               11            12            13            14 
     11  0.408970D-01
     12  0.210852D-02  0.254134D-01
     13  0.105426D-02  0.127067D-01  0.257911D-01
     14 -0.105426D-02 -0.127067D-01  0.130844D-01  0.257911D-01
 Leave Link  716 at Sun Aug 18 00:51:32 2024, MaxMem=   13107200 cpu:       0.0
 (Enter /programs/64bit/g09/g09-gfortran/bin/l103.exe)

 GradGradGradGradGradGradGradGradGradGradGradGradGradGradGradGradGradGrad
 Berny optimization.
 Internal  Forces:  Max     0.000000114 RMS     0.000000061
 Search for a local minimum.
 Step number   1 out of a maximum of    2
 All quantities printed in internal units (Hartrees-Bohrs-Radians)
 Second derivative matrix not updated -- analytic derivatives used.
 The second derivative matrix:
                          R1        R2        R3        R4        A1
           R1           0.44222
           R2          -0.00529   0.44222
           R3          -0.00529  -0.00529   0.44222
           R4          -0.00529  -0.00529  -0.00529   0.44222
           A1           0.00178   0.00178  -0.00112  -0.00245   0.02673
           A2           0.00279  -0.00072   0.00311  -0.00518  -0.01173
           A3           0.00546  -0.00438  -0.00485   0.00377  -0.01766
           A4          -0.00072   0.00279   0.00311  -0.00518  -0.01173
           A5          -0.00438   0.00546  -0.00485   0.00377  -0.01766
           A6          -0.00493  -0.00493   0.00460   0.00527   0.03205
           D1          -0.00345  -0.00345  -0.00244   0.00934  -0.01838
           D2           0.00284   0.00284  -0.00731   0.00162   0.01110
           D3          -0.00374   0.00659  -0.00366   0.00081   0.00555
           D4          -0.00659   0.00374   0.00366  -0.00081  -0.00555
                          A2        A3        A4        A5        A6
           A2           0.05053
           A3          -0.03063   0.09872
           A4          -0.00256   0.03314   0.05053
           A5           0.03314  -0.04764  -0.03063   0.09872
           A6          -0.03875  -0.03592  -0.03875  -0.03592   0.11730
           D1          -0.01501   0.02010  -0.01501   0.02010   0.00821
           D2          -0.01283   0.00965  -0.01283   0.00965  -0.00474
           D3          -0.01940  -0.00094   0.00658   0.01058  -0.00237
           D4          -0.00658  -0.01058   0.01940   0.00094   0.00237
                          D1        D2        D3        D4
           D1           0.04090
           D2           0.00211   0.02541
           D3           0.00105   0.01271   0.02579
           D4          -0.00105  -0.01271   0.01308   0.02579
     Eigenvalues ---    0.05245   0.05916   0.09016   0.17809   0.17856
     Eigenvalues ---    0.42637   0.44811   0.44812   0.448301000.00000
     Eigenvalues --- 1000.000001000.000001000.000001000.00000
 Angle between quadratic step and forces=  90.00 degrees.
 Linear search not attempted -- first point.
 Iteration  1 RMS(Cart)=  0.00000014 RMS(Int)=  0.00000000
 ClnCor:  largest displacement from symmetrization is 2.92D-14 for atom     3.
 Variable       Old X    -DE/DX   Delta X   Delta X   Delta X     New X
                                 (Linear)    (Quad)   (Total)
    R1        2.07731   0.00000   0.00000   0.00000   0.00000   2.07731
    R2        2.07731   0.00000   0.00000   0.00000   0.00000   2.07731
    R3        2.07731   0.00000   0.00000   0.00000   0.00000   2.07731
    R4        2.07731   0.00000   0.00000   0.00000   0.00000   2.07731
    A1        1.91063   0.00000   0.00000   0.00000   0.00000   1.91063
    A2        1.91063  -0.00000   0.00000   0.00000   0.00000   1.91063
    A3        1.91063   0.00000   0.00000   0.00000   0.00000   1.91063
    A4        1.91063   0.00000   0.00000   0.00000   0.00000   1.91063
    A5        1.91063  -0.00000   0.00000  -0.00000   0.00000   1.91063
    A6        1.91063  -0.00000   0.00000  -0.00000  -0.00000   1.91063
    D1       -2.09440  -0.00000   0.00000  -0.00000   0.00000  -2.09440
    D2        2.09440  -0.00000   0.00000  -0.00000   0.00000   2.09440
    D3       -2.09440  -0.00000   0.00000  -0.00000   0.00000  -2.09440
    D4        2.09440   0.00000   0.00000   0.00000   0.00000   2.09440
         Item               Value     Threshold  Converged?
 Maximum Force            0.000000     0.000450     YES
 RMS     Force            0.000000     0.000300     YES
 Maximum Displacement     0.000000     0.001800     YES
 RMS     Displacement     0.000000     0.001200     YES
 Predicted change in Energy=-6.057306D-14
 Optimization completed.
    -- Stationary point found.
                           ----------------------------
                           !   Optimized Parameters   !
                           ! (Angstroms and Degrees)  !
 --------------------------                            --------------------------
 ! Name  Definition              Value          Derivative Info.                !
 --------------------------------------------------------------------------------
 ! R1    R(1,2)                  1.0993         -DE/DX =    0.0                 !
 ! R2    R(1,3)                  1.0993         -DE/DX =    0.0                 !
 ! R3    R(1,4)                  1.0993         -DE/DX =    0.0                 !
 ! R4    R(1,5)                  1.0993         -DE/DX =    0.0                 !
 ! A1    A(2,1,3)              109.4712         -DE/DX =    0.0                 !
 ! A2    A(2,1,4)              109.4712         -DE/DX =    0.0                 !
 ! A3    A(2,1,5)              109.4712         -DE/DX =    0.0                 !
 ! A4    A(3,1,4)              109.4712         -DE/DX =    0.0                 !
 ! A5    A(3,1,5)              109.4712         -DE/DX =    0.0                 !
 ! A6    A(4,1,5)              109.4712         -DE/DX =    0.0                 !
 ! D1    D(2,1,4,3)           -120.0            -DE/DX =    0.0                 !
 ! D2    D(2,1,5,3)            120.0            -DE/DX =    0.0                 !
 ! D3    D(2,1,5,4)           -120.0            -DE/DX =    0.0                 !
 ! D4    D(3,1,5,4)            120.0            -DE/DX =    0.0                 !
 --------------------------------------------------------------------------------
 GradGradGradGradGradGradGradGradGradGradGradGradGradGradGradGradGradGrad

 Leave Link  103 at Sun Aug 18 00:51:32 2024, MaxMem=   13107200 cpu:       0.0
 (Enter /programs/64bit/g09/g09-gfortran/bin/l9999.exe)
 1\1\GINC-MOLMOD\Freq\RMP2-FC\STO-3G\C1H4\OSPITE\18-Aug-2024\0\\#P Geom
 =AllCheck Guess=TCheck SCRF=Check GenChk RMP2(FC)/STO-3G Freq\\methane
  with imposed symmetry and STO-3G basis set\\0,1\C,0.,0.,0.\H,0.,0.,1.
 0992671158\H,1.0363989759,0.,-0.3664223719\H,-0.5181994879,-0.89754784
 16,-0.3664223719\H,-0.5181994879,0.8975478416,-0.3664223719\\Version=E
 M64L-G09RevA.02\State=1-A1\HF=-39.7259914\MP2=-39.7830686\RMSD=2.414e-
 15\RMSF=5.868e-08\ZeroPoint=0.0512504\Thermal=0.0540963\Dipole=0.,0.,0
 .\DipoleDeriv=-0.0613568,0.,0.,0.,-0.0613568,0.,0.,0.,-0.0613568,0.042
 159,0.,0.,0.,0.042159,0.,0.,0.,-0.0383005,-0.0293605,0.,0.025286,0.,0.
 042159,0.,0.025286,0.,0.0332191,0.0242791,-0.0309689,-0.012643,-0.0309
 689,-0.0114806,-0.0218983,-0.012643,-0.0218983,0.0332191,0.0242791,0.0
 309689,-0.012643,0.0309689,-0.0114806,0.0218983,-0.012643,0.0218983,0.
 0332191\Polar=5.5047743,0.,5.5047743,0.,0.,5.5047743\PG=TD [O(C1),4C3(
 H1)]\NImag=0\\0.74864552,0.,0.74864552,0.,0.,0.74864552,-0.06799549,0.
 ,0.,0.06084784,0.,-0.06799549,0.,0.,0.06084784,0.,0.,-0.42549316,0.,0.
 ,0.44222218,-0.38577120,0.,0.11235068,0.00636092,0.,-0.00757756,0.3998
 4725,0.,-0.06799549,0.,0.,-0.00159582,0.,0.,0.06084784,0.11235068,0.,-
 0.10771745,0.04134124,0.,-0.00557634,-0.11985439,0.,0.10322276,-0.1474
 3942,-0.13760092,-0.05617534,0.00039336,0.00344537,0.00378878,-0.01021
 849,-0.03260652,-0.01691876,0.14559769,-0.13760092,-0.30632727,-0.0972
 9854,0.00344537,0.00437174,0.00656236,0.00733551,0.00437174,0.00106087
 ,0.14679105,0.31509740,-0.05617534,-0.09729854,-0.10771745,-0.02067062
 ,-0.03580256,-0.00557634,0.00754064,0.01518251,0.00503551,0.05992720,0
 .10379695,0.10322276,-0.14743942,0.13760092,-0.05617534,0.00039336,-0.
 00344537,0.00378878,-0.01021849,0.03260652,-0.01691876,0.01166685,-0.0
 1997102,0.00937812,0.14559769,0.13760092,-0.30632727,0.09729854,-0.003
 44537,0.00437174,-0.00656236,-0.00733551,0.00437174,-0.00106087,0.0199
 7102,-0.01751360,0.01412164,-0.14679105,0.31509740,-0.05617534,0.09729
 854,-0.10771745,-0.02067062,0.03580256,-0.00557634,0.00754064,-0.01518
 251,0.00503551,0.00937812,-0.01412164,0.00503551,0.05992720,-0.1037969
 5,0.10322276\\0.,0.,0.,0.,0.,-0.00000011,-0.00000011,0.,0.00000004,0.0
 0000005,0.00000009,0.00000004,0.00000005,-0.00000009,0.00000004\\\@


 TOWERING GENIUS DISDAINS A BEATEN PATH.  IT SEEKS 
 REGIONS HITHERTO UNEXPLORED.

                                -- ABRAHAM LINCOLN
 Job cpu time:  0 days  0 hours  0 minutes  2.7 seconds.
 File lengths (MBytes):  RWF=     18 Int=      0 D2E=      0 Chk=      1 Scr=      1
 Normal termination of Gaussian 09 at Sun Aug 18 00:51:32 2024.
