 Entering Gaussian System, Link 0=/programs/64bit/g09/g09-gfortran/bin/g09
 Input=ch4_Pople631.com
 Output=ch4_Pople631.log
 Initial command:
 /programs/64bit/g09/g09-gfortran/bin/l1.exe /home/ospite/Desktop/MMfP/Project6/CH4/g09/MP2/Gau-4174.inp -scrdir=/home/ospite/Desktop/MMfP/Project6/CH4/g09/MP2/
 Entering Link 1 = /programs/64bit/g09/g09-gfortran/bin/l1.exe PID=      4175.
  
 Copyright (c) 1988,1990,1992,1993,1995,1998,2003,2009, Gaussian, Inc.
                  All Rights Reserved.
  
 This is part of the Gaussian(R) 09 program.  It is based on
 the Gaussian(R) 03 system (copyright 2003, Gaussian, Inc.),
 the Gaussian(R) 98 system (copyright 1998, Gaussian, Inc.),
 the Gaussian(R) 94 system (copyright 1995, Gaussian, Inc.),
 the Gaussian 92(TM) system (copyright 1992, Gaussian, Inc.),
 the Gaussian 90(TM) system (copyright 1990, Gaussian, Inc.),
 the Gaussian 88(TM) system (copyright 1988, Gaussian, Inc.),
 the Gaussian 86(TM) system (copyright 1986, Carnegie Mellon
 University), and the Gaussian 82(TM) system (copyright 1983,
 Carnegie Mellon University). Gaussian is a federally registered
 trademark of Gaussian, Inc.
  
 This software contains proprietary and confidential information,
 including trade secrets, belonging to Gaussian, Inc.
  
 This software is provided under written license and may be
 used, copied, transmitted, or stored only in accord with that
 written license.
  
 The following legend is applicable only to US Government
 contracts under FAR:
  
                    RESTRICTED RIGHTS LEGEND
  
 Use, reproduction and disclosure by the US Government is
 subject to restrictions as set forth in subparagraphs (a)
 and (c) of the Commercial Computer Software - Restricted
 Rights clause in FAR 52.227-19.
  
 Gaussian, Inc.
 340 Quinnipiac St., Bldg. 40, Wallingford CT 06492
  
  
 ---------------------------------------------------------------
 Warning -- This program may not be used in any manner that
 competes with the business of Gaussian, Inc. or will provide
 assistance to any competitor of Gaussian, Inc.  The licensee
 of this program is prohibited from giving any competitor of
 Gaussian, Inc. access to this program.  By using this program,
 the user acknowledges that Gaussian, Inc. is engaged in the
 business of creating and licensing software in the field of
 computational chemistry and represents and warrants to the
 licensee that it is not a competitor of Gaussian, Inc. and that
 it will not use this program in any manner prohibited above.
 ---------------------------------------------------------------
  

 Cite this work as:
 Gaussian 09, Revision A.02,
 M. J. Frisch, G. W. Trucks, H. B. Schlegel, G. E. Scuseria, 
 M. A. Robb, J. R. Cheeseman, G. Scalmani, V. Barone, B. Mennucci, 
 G. A. Petersson, H. Nakatsuji, M. Caricato, X. Li, H. P. Hratchian, 
 A. F. Izmaylov, J. Bloino, G. Zheng, J. L. Sonnenberg, M. Hada, 
 M. Ehara, K. Toyota, R. Fukuda, J. Hasegawa, M. Ishida, T. Nakajima, 
 Y. Honda, O. Kitao, H. Nakai, T. Vreven, J. A. Montgomery, Jr., 
 J. E. Peralta, F. Ogliaro, M. Bearpark, J. J. Heyd, E. Brothers, 
 K. N. Kudin, V. N. Staroverov, R. Kobayashi, J. Normand, 
 K. Raghavachari, A. Rendell, J. C. Burant, S. S. Iyengar, J. Tomasi, 
 M. Cossi, N. Rega, J. M. Millam, M. Klene, J. E. Knox, J. B. Cross, 
 V. Bakken, C. Adamo, J. Jaramillo, R. Gomperts, R. E. Stratmann, 
 O. Yazyev, A. J. Austin, R. Cammi, C. Pomelli, J. W. Ochterski, 
 R. L. Martin, K. Morokuma, V. G. Zakrzewski, G. A. Voth, 
 P. Salvador, J. J. Dannenberg, S. Dapprich, A. D. Daniels, 
 O. Farkas, J. B. Foresman, J. V. Ortiz, J. Cioslowski, 
 and D. J. Fox, Gaussian, Inc., Wallingford CT, 2009.
 
 ******************************************
 Gaussian 09:  EM64L-G09RevA.02 11-Jun-2009
                17-Aug-2024 
 ******************************************
 %mem=100MB
 --------------------------------------------------------------
 #p mp2/6-31G opt freq symmetry=(follow,pg=Td) pop=full gfinput
 --------------------------------------------------------------
 1/18=20,19=15,38=1/1,3;
 2/9=110,12=2,17=6,18=5,19=2314885530818462804,40=1/2;
 3/5=1,6=6,11=9,16=1,24=10,25=1,30=1,71=1/1,2,3;
 4//1;
 5/5=2,38=5/2;
 8/6=4,10=2/1;
 9/15=2,16=-3/6;
 10/5=1/2;
 6/7=3/1;
 7/12=2/1,2,3,16;
 1/18=20,19=15/3(2);
 2/9=110,15=5,19=2314885530818462804/2;
 99//99;
 2/9=110,15=5,19=2314885530818462804/2;
 3/5=1,6=6,11=9,16=1,25=1,30=1,71=1/1,2,3;
 4/5=5,16=3/1;
 5/5=2,38=5/2;
 8/6=4,10=2/1;
 9/15=2,16=-3/6;
 10/5=1/2;
 7/12=2/1,2,3,16;
 1/18=20,19=15/3(-8);
 2/9=110,15=5,19=2314885530818462804/2;
 6/7=3/1;
 99//99;
 Leave Link    1 at Sat Aug 17 14:48:08 2024, MaxMem=   13107200 cpu:       0.1
 (Enter /programs/64bit/g09/g09-gfortran/bin/l101.exe)
 ------------------------------------------------------------
 methane with imposed symmetry Td and hf/6-31G basis function
 ------------------------------------------------------------
 Symbolic Z-matrix:
 Charge =  0 Multiplicity = 1
 C1
 H2                   1    d
 H3                   1    d        2    a
 H4                   1    d        2    a        3    t        0
 H5                   1    d        2    a        3    -t       0
       Variables:
  d                     1.09                     
  a                   109.471                    
  t                   120.                       
 
     3 tetrahedral angles replaced.
 NAtoms=      5 NQM=      5 NQMF=      0 NMic=      0 NMicF=      0 NTot=      5.
                    Isotopes and Nuclear Properties:
 (Nuclear quadrupole moments (NQMom) in fm**2, nuclear magnetic moments (NMagM)
  in nuclear magnetons)

  Atom         1           2           3           4           5
 IAtWgt=          12           1           1           1           1
 AtmWgt=  12.0000000   1.0078250   1.0078250   1.0078250   1.0078250
 NucSpn=           0           1           1           1           1
 AtZEff=   0.0000000   0.0000000   0.0000000   0.0000000   0.0000000
 NQMom=    0.0000000   0.0000000   0.0000000   0.0000000   0.0000000
 NMagM=    0.0000000   2.7928460   2.7928460   2.7928460   2.7928460
 Leave Link  101 at Sat Aug 17 14:48:08 2024, MaxMem=   13107200 cpu:       0.1
 (Enter /programs/64bit/g09/g09-gfortran/bin/l103.exe)

 GradGradGradGradGradGradGradGradGradGradGradGradGradGradGradGradGradGrad
 Berny optimization.
 Initialization pass.
                           ----------------------------
                           !    Initial Parameters    !
                           ! (Angstroms and Degrees)  !
 --------------------------                            --------------------------
 ! Name  Definition              Value          Derivative Info.                !
 --------------------------------------------------------------------------------
 ! R1    R(1,2)                  1.09           estimate D2E/DX2                !
 ! R2    R(1,3)                  1.09           estimate D2E/DX2                !
 ! R3    R(1,4)                  1.09           estimate D2E/DX2                !
 ! R4    R(1,5)                  1.09           estimate D2E/DX2                !
 ! A1    A(2,1,3)              109.4712         estimate D2E/DX2                !
 ! A2    A(2,1,4)              109.4712         estimate D2E/DX2                !
 ! A3    A(2,1,5)              109.4712         estimate D2E/DX2                !
 ! A4    A(3,1,4)              109.4712         estimate D2E/DX2                !
 ! A5    A(3,1,5)              109.4712         estimate D2E/DX2                !
 ! A6    A(4,1,5)              109.4712         estimate D2E/DX2                !
 ! D1    D(2,1,4,3)           -120.0            estimate D2E/DX2                !
 ! D2    D(2,1,5,3)            120.0            estimate D2E/DX2                !
 ! D3    D(2,1,5,4)           -120.0            estimate D2E/DX2                !
 ! D4    D(3,1,5,4)            120.0            estimate D2E/DX2                !
 --------------------------------------------------------------------------------
 Trust Radius=3.00D-01 FncErr=1.00D-07 GrdErr=1.00D-07
 Number of steps in this run=  24 maximum allowed number of steps= 100.
 GradGradGradGradGradGradGradGradGradGradGradGradGradGradGradGradGradGrad

 Leave Link  103 at Sat Aug 17 14:48:08 2024, MaxMem=   13107200 cpu:       0.0
 (Enter /programs/64bit/g09/g09-gfortran/bin/l202.exe)
                          Input orientation:                          
 ---------------------------------------------------------------------
 Center     Atomic      Atomic             Coordinates (Angstroms)
 Number     Number       Type             X           Y           Z
 ---------------------------------------------------------------------
      1          6           0        0.000000    0.000000    0.000000
      2          1           0        0.000000    0.000000    1.090000
      3          1           0        1.027662    0.000000   -0.363333
      4          1           0       -0.513831   -0.889981   -0.363333
      5          1           0       -0.513831    0.889981   -0.363333
 ---------------------------------------------------------------------
                    Distance matrix (angstroms):
                    1          2          3          4          5
     1  C    0.000000
     2  H    1.090000   0.000000
     3  H    1.090000   1.779963   0.000000
     4  H    1.090000   1.779963   1.779963   0.000000
     5  H    1.090000   1.779963   1.779963   1.779963   0.000000
 Symm:  InNGrp=TD   InAxis=0.
 Stoichiometry    CH4
 Framework group  TD[O(C),4C3(H)]
 Deg. of freedom     1
 Full point group                 TD      NOp  24
 Largest Abelian subgroup         D2      NOp   4
 Largest concise Abelian subgroup D2      NOp   4
                         Standard orientation:                         
 ---------------------------------------------------------------------
 Center     Atomic      Atomic             Coordinates (Angstroms)
 Number     Number       Type             X           Y           Z
 ---------------------------------------------------------------------
      1          6           0        0.000000    0.000000    0.000000
      2          1           0        0.629312    0.629312    0.629312
      3          1           0       -0.629312   -0.629312    0.629312
      4          1           0       -0.629312    0.629312   -0.629312
      5          1           0        0.629312   -0.629312   -0.629312
 ---------------------------------------------------------------------
 Rotational constants (GHZ):    158.2742720    158.2742720    158.2742720
 Leave Link  202 at Sat Aug 17 14:48:08 2024, MaxMem=   13107200 cpu:       0.0
 (Enter /programs/64bit/g09/g09-gfortran/bin/l301.exe)
 Standard basis: 6-31G (6D, 7F)
 Ernie: Thresh=  0.10000D-02 Tol=  0.10000D-05 Strict=F.
 AO basis set in the form of general basis input (Overlap normalization):
      1 0
 S   6 1.00       0.000000000000
      0.3047524880D+04  0.1834737132D-02
      0.4573695180D+03  0.1403732281D-01
      0.1039486850D+03  0.6884262226D-01
      0.2921015530D+02  0.2321844432D+00
      0.9286662960D+01  0.4679413484D+00
      0.3163926960D+01  0.3623119853D+00
 SP   3 1.00       0.000000000000
      0.7868272350D+01 -0.1193324198D+00  0.6899906659D-01
      0.1881288540D+01 -0.1608541517D+00  0.3164239610D+00
      0.5442492580D+00  0.1143456438D+01  0.7443082909D+00
 SP   1 1.00       0.000000000000
      0.1687144782D+00  0.1000000000D+01  0.1000000000D+01
 ****
      2 0
 S   3 1.00       0.000000000000
      0.1873113696D+02  0.3349460434D-01
      0.2825394365D+01  0.2347269535D+00
      0.6401216923D+00  0.8137573261D+00
 S   1 1.00       0.000000000000
      0.1612777588D+00  0.1000000000D+01
 ****
      3 0
 S   3 1.00       0.000000000000
      0.1873113696D+02  0.3349460434D-01
      0.2825394365D+01  0.2347269535D+00
      0.6401216923D+00  0.8137573261D+00
 S   1 1.00       0.000000000000
      0.1612777588D+00  0.1000000000D+01
 ****
      4 0
 S   3 1.00       0.000000000000
      0.1873113696D+02  0.3349460434D-01
      0.2825394365D+01  0.2347269535D+00
      0.6401216923D+00  0.8137573261D+00
 S   1 1.00       0.000000000000
      0.1612777588D+00  0.1000000000D+01
 ****
      5 0
 S   3 1.00       0.000000000000
      0.1873113696D+02  0.3349460434D-01
      0.2825394365D+01  0.2347269535D+00
      0.6401216923D+00  0.8137573261D+00
 S   1 1.00       0.000000000000
      0.1612777588D+00  0.1000000000D+01
 ****

 There are     5 symmetry adapted basis functions of A   symmetry.
 There are     4 symmetry adapted basis functions of B1  symmetry.
 There are     4 symmetry adapted basis functions of B2  symmetry.
 There are     4 symmetry adapted basis functions of B3  symmetry.
 Integral buffers will be    131072 words long.
 Raffenetti 1 integral format.
 Two-electron integral symmetry is turned on.
    17 basis functions,    38 primitive gaussians,    17 cartesian basis functions
     5 alpha electrons        5 beta electrons
       nuclear repulsion energy        13.4353891954 Hartrees.
 IExCor=    0 DFT=F Ex=HF Corr=None ExCW=0 ScaHFX=  1.000000
 ScaDFX=  1.000000  1.000000  1.000000  1.000000 ScalE2=  1.000000  1.000000
 IRadAn=      0 IRanWt=     -1 IRanGd=            0 ICorTp=0
 NAtoms=    5 NActive=    5 NUniq=    2 SFac= 3.00D+00 NAtFMM=   80 NAOKFM=F Big=F
 Leave Link  301 at Sat Aug 17 14:48:08 2024, MaxMem=   13107200 cpu:       0.1
 (Enter /programs/64bit/g09/g09-gfortran/bin/l302.exe)
 NPDir=0 NMtPBC=     1 NCelOv=     1 NCel=       1 NClECP=     1 NCelD=      1
         NCelK=      1 NCelE2=     1 NClLst=     1 CellRange=     0.0.
 One-electron integrals computed using PRISM.
 One-electron integral symmetry used in STVInt
 NBasis=    17 RedAO= T  NBF=     5     4     4     4
 NBsUse=    17 1.00D-06 NBFU=     5     4     4     4
 Leave Link  302 at Sat Aug 17 14:48:09 2024, MaxMem=   13107200 cpu:       0.1
 (Enter /programs/64bit/g09/g09-gfortran/bin/l303.exe)
 DipDrv:  MaxL=1.
 Leave Link  303 at Sat Aug 17 14:48:09 2024, MaxMem=   13107200 cpu:       0.0
 (Enter /programs/64bit/g09/g09-gfortran/bin/l401.exe)
 Harris functional with IExCor=  205 diagonalized for initial guess.
 ExpMin= 1.61D-01 ExpMax= 3.05D+03 ExpMxC= 4.57D+02 IAcc=1 IRadAn=         1 AccDes= 0.00D+00
 HarFok:  IExCor=  205 AccDes= 0.00D+00 IRadAn=         1 IDoV= 1
 ScaDFX=  1.000000  1.000000  1.000000  1.000000
 FoFCou: FMM=F IPFlag=           0 FMFlag=      100000 FMFlg1=           0
         NFxFlg=           0 DoJE=T BraDBF=F KetDBF=T FulRan=T
         Omega=  0.000000  0.000000  1.000000  0.000000  0.000000 ICntrl=     500 IOpCl=  0
         NMat0=    1 NMatS0=    1 NMatT0=    0 NMatD0=    1 NMtDS0=    0 NMtDT0=    0
         I1Cent=           4 NGrid=           0.
 Petite list used in FoFCou.
 Harris En= -40.3660326147709    
 Initial guess orbital symmetries:
       Occupied  (A1) (A1) (T2) (T2) (T2)
       Virtual   (A1) (T2) (T2) (T2) (T2) (T2) (T2) (T2) (T2) (T2)
                 (A1) (A1)
 The electronic state of the initial guess is 1-A1.
 Leave Link  401 at Sat Aug 17 14:48:09 2024, MaxMem=   13107200 cpu:       0.2
 (Enter /programs/64bit/g09/g09-gfortran/bin/l502.exe)
 Closed shell SCF:
 Requested convergence on RMS density matrix=1.00D-08 within 128 cycles.
 Requested convergence on MAX density matrix=1.00D-06.
 Requested convergence on             energy=1.00D-06.
 No special actions if energy rises.
 Using DIIS extrapolation, IDIIS=  1040.
 Integral symmetry usage will be decided dynamically.
 Keep R1 ints in memory in canonical form, NReq=831858.
 IEnd=       20063 IEndB=       20063 NGot=    13107200 MDV=    13092431
 LenX=    13092431 LenY=    13091549
 Symmetry not used in FoFDir.
 MinBra= 0 MaxBra= 1 Meth= 1.
 IRaf=       0 NMat=   1 IRICut=       1 DoRegI=T DoRafI=F ISym2E= 0 JSym2E=0.

 Cycle   1  Pass 1  IDiag  1:
 E= -40.0580548143669    
 DIIS: error= 8.34D-02 at cycle   1 NSaved=   1.
 NSaved= 1 IEnMin= 1 EnMin= -40.0580548143669     IErMin= 1 ErrMin= 8.34D-02
 ErrMax= 8.34D-02 EMaxC= 1.00D-01 BMatC= 1.16D-01 BMatP= 1.16D-01
 IDIUse=3 WtCom= 1.66D-01 WtEn= 8.34D-01
 Coeff-Com:  0.100D+01
 Coeff-En:   0.100D+01
 Coeff:      0.100D+01
 Gap=     0.721 Goal=   None    Shift=    0.000
 GapD=    0.721 DampG=2.000 DampE=0.500 DampFc=1.0000 IDamp=-1.
 RMSDP=2.06D-02 MaxDP=1.33D-01              OVMax= 1.43D-01

 Cycle   2  Pass 1  IDiag  1:
 E= -40.1612467457445     Delta-E=       -0.103191931378 Rises=F Damp=F
 DIIS: error= 3.16D-02 at cycle   2 NSaved=   2.
 NSaved= 2 IEnMin= 2 EnMin= -40.1612467457445     IErMin= 2 ErrMin= 3.16D-02
 ErrMax= 3.16D-02 EMaxC= 1.00D-01 BMatC= 1.91D-02 BMatP= 1.16D-01
 IDIUse=3 WtCom= 6.84D-01 WtEn= 3.16D-01
 Coeff-Com:  0.276D+00 0.724D+00
 Coeff-En:   0.000D+00 0.100D+01
 Coeff:      0.189D+00 0.811D+00
 Gap=     0.807 Goal=   None    Shift=    0.000
 RMSDP=6.33D-03 MaxDP=3.87D-02 DE=-1.03D-01 OVMax= 3.84D-02

 Cycle   3  Pass 1  IDiag  1:
 E= -40.1800129857018     Delta-E=       -0.018766239957 Rises=F Damp=F
 DIIS: error= 4.54D-03 at cycle   3 NSaved=   3.
 NSaved= 3 IEnMin= 3 EnMin= -40.1800129857018     IErMin= 3 ErrMin= 4.54D-03
 ErrMax= 4.54D-03 EMaxC= 1.00D-01 BMatC= 3.15D-04 BMatP= 1.91D-02
 IDIUse=3 WtCom= 9.55D-01 WtEn= 4.54D-02
 Coeff-Com: -0.240D-01 0.657D-01 0.958D+00
 Coeff-En:   0.000D+00 0.000D+00 0.100D+01
 Coeff:     -0.230D-01 0.627D-01 0.960D+00
 Gap=     0.798 Goal=   None    Shift=    0.000
 RMSDP=9.08D-04 MaxDP=5.20D-03 DE=-1.88D-02 OVMax= 5.95D-03

 Cycle   4  Pass 1  IDiag  1:
 E= -40.1803821247879     Delta-E=       -0.000369139086 Rises=F Damp=F
 DIIS: error= 4.02D-04 at cycle   4 NSaved=   4.
 NSaved= 4 IEnMin= 4 EnMin= -40.1803821247879     IErMin= 4 ErrMin= 4.02D-04
 ErrMax= 4.02D-04 EMaxC= 1.00D-01 BMatC= 1.44D-06 BMatP= 3.15D-04
 IDIUse=3 WtCom= 9.96D-01 WtEn= 4.02D-03
 Coeff-Com:  0.855D-02-0.346D-01-0.371D+00 0.140D+01
 Coeff-En:   0.000D+00 0.000D+00 0.000D+00 0.100D+01
 Coeff:      0.851D-02-0.344D-01-0.369D+00 0.140D+01
 Gap=     0.798 Goal=   None    Shift=    0.000
 RMSDP=1.68D-04 MaxDP=7.53D-04 DE=-3.69D-04 OVMax= 5.70D-04

 Cycle   5  Pass 1  IDiag  1:
 E= -40.1803847406200     Delta-E=       -0.000002615832 Rises=F Damp=F
 DIIS: error= 9.78D-06 at cycle   5 NSaved=   5.
 NSaved= 5 IEnMin= 5 EnMin= -40.1803847406200     IErMin= 5 ErrMin= 9.78D-06
 ErrMax= 9.78D-06 EMaxC= 1.00D-01 BMatC= 2.17D-09 BMatP= 1.44D-06
 IDIUse=1 WtCom= 1.00D+00 WtEn= 0.00D+00
 Coeff-Com: -0.125D-02 0.514D-02 0.552D-01-0.237D+00 0.118D+01
 Coeff:     -0.125D-02 0.514D-02 0.552D-01-0.237D+00 0.118D+01
 Gap=     0.798 Goal=   None    Shift=    0.000
 RMSDP=9.90D-06 MaxDP=3.06D-05 DE=-2.62D-06 OVMax= 2.91D-05

 Cycle   6  Pass 1  IDiag  1:
 E= -40.1803847454742     Delta-E=       -0.000000004854 Rises=F Damp=F
 DIIS: error= 9.11D-07 at cycle   6 NSaved=   6.
 NSaved= 6 IEnMin= 6 EnMin= -40.1803847454742     IErMin= 6 ErrMin= 9.11D-07
 ErrMax= 9.11D-07 EMaxC= 1.00D-01 BMatC= 8.94D-12 BMatP= 2.17D-09
 IDIUse=1 WtCom= 1.00D+00 WtEn= 0.00D+00
 Coeff-Com:  0.798D-04-0.291D-03-0.329D-02 0.157D-01-0.116D+00 0.110D+01
 Coeff:      0.798D-04-0.291D-03-0.329D-02 0.157D-01-0.116D+00 0.110D+01
 Gap=     0.798 Goal=   None    Shift=    0.000
 RMSDP=3.82D-07 MaxDP=1.22D-06 DE=-4.85D-09 OVMax= 1.39D-06

 Cycle   7  Pass 1  IDiag  1:
 E= -40.1803847454900     Delta-E=       -0.000000000016 Rises=F Damp=F
 DIIS: error= 9.72D-08 at cycle   7 NSaved=   7.
 NSaved= 7 IEnMin= 7 EnMin= -40.1803847454900     IErMin= 7 ErrMin= 9.72D-08
 ErrMax= 9.72D-08 EMaxC= 1.00D-01 BMatC= 2.06D-13 BMatP= 8.94D-12
 IDIUse=1 WtCom= 1.00D+00 WtEn= 0.00D+00
 Coeff-Com: -0.101D-05-0.468D-05-0.280D-05-0.439D-03 0.115D-01-0.276D+00
 Coeff-Com:  0.126D+01
 Coeff:     -0.101D-05-0.468D-05-0.280D-05-0.439D-03 0.115D-01-0.276D+00
 Coeff:      0.126D+01
 Gap=     0.798 Goal=   None    Shift=    0.000
 RMSDP=8.62D-08 MaxDP=6.35D-07 DE=-1.58D-11 OVMax= 2.78D-07

 Cycle   8  Pass 1  IDiag  1:
 E= -40.1803847454905     Delta-E=       -0.000000000001 Rises=F Damp=F
 DIIS: error= 9.93D-10 at cycle   8 NSaved=   8.
 NSaved= 8 IEnMin= 8 EnMin= -40.1803847454905     IErMin= 8 ErrMin= 9.93D-10
 ErrMax= 9.93D-10 EMaxC= 1.00D-01 BMatC= 2.14D-17 BMatP= 2.06D-13
 IDIUse=1 WtCom= 1.00D+00 WtEn= 0.00D+00
 Coeff-Com: -0.125D-06 0.676D-06 0.631D-05-0.216D-04 0.694D-05 0.407D-02
 Coeff-Com: -0.201D-01 0.102D+01
 Coeff:     -0.125D-06 0.676D-06 0.631D-05-0.216D-04 0.694D-05 0.407D-02
 Coeff:     -0.201D-01 0.102D+01
 Gap=     0.798 Goal=   None    Shift=    0.000
 RMSDP=6.71D-10 MaxDP=2.95D-09 DE=-5.40D-13 OVMax= 1.23D-09

 SCF Done:  E(RHF) =  -40.1803847455     A.U. after    8 cycles
             Convg  =    0.6707D-09             -V/T =  1.9993
 KE= 4.020924780148D+01 PE=-1.198759488745D+02 EE= 2.605092713214D+01
 Leave Link  502 at Sat Aug 17 14:48:09 2024, MaxMem=   13107200 cpu:       0.1
 (Enter /programs/64bit/g09/g09-gfortran/bin/l801.exe)
 ExpMin= 1.61D-01 ExpMax= 3.05D+03 ExpMxC= 4.57D+02 IAcc=1 IRadAn=         1 AccDes= 0.00D+00
 HarFok:  IExCor=  205 AccDes= 0.00D+00 IRadAn=         1 IDoV=-2
 ScaDFX=  1.000000  1.000000  1.000000  1.000000
 Largest valence mixing into a core orbital is  1.06D-04
 Largest core mixing into a valence orbital is  3.27D-05
 Range of M.O.s used for correlation:     2    17
 NBasis=    17 NAE=     5 NBE=     5 NFC=     1 NFV=     0
 NROrb=     16 NOA=     4 NOB=     4 NVA=    12 NVB=    12
 Leave Link  801 at Sat Aug 17 14:48:09 2024, MaxMem=   13107200 cpu:       0.1
 (Enter /programs/64bit/g09/g09-gfortran/bin/l906.exe)
 Frozen-core derivative calculation, NFC=   1 NFV=   0.
 FulOut=F Deriv=T AODrv=T NAtomX=     5
   MMem=        4256  MDisk=           4 MDiskD=           4
  W3Min=        1445 MinDsk=       53995 NBas6D=          17
 NBas2D=         165    NTT=         153    LW2=     2000000
    MDV=    13096355 MDiskM=        6799 NBas2p=          87
 Fully direct method using O(ONN) memory.
 IMap=   1   2   3   4   5
 JobTyp=1 Pass  1:  I=   2 to   5 NPSUse=  1 ParTrn=F ParDer=F DoDerP=T.
 Spin components of T(2) and E(2):
     alpha-alpha T2 =       0.3133432281D-02 E2=     -0.8066624636D-02
     alpha-beta  T2 =       0.3076274390D-01 E2=     -0.8253479740D-01
     beta-beta   T2 =       0.3133432281D-02 E2=     -0.8066624636D-02
 The integrals were generated   1 times.
 ANorm=    0.1018346507D+01
 E2 =    -0.9866804668D-01 EUMP2 =    -0.40279052792166D+02
 Leave Link  906 at Sat Aug 17 14:48:09 2024, MaxMem=   13107200 cpu:       0.2
 (Enter /programs/64bit/g09/g09-gfortran/bin/l1002.exe)
 Minotr:  Closed shell wavefunction.
          Computing MP2/KS-MP2 derivatives.
          Using Z-Vector for PSCF gradient.
          Skipping F1 and S1 gradient terms here.
          IDoAtm=11111
          Frozen-core window.
          Direct CPHF calculation.
          Differentiating once with respect to electric field.
                with respect to dipole field.
          Differentiating once with respect to nuclear coordinates.
          Using symmetry in CPHF.
          Requested convergence is 1.0D-10 RMS, and 1.0D-09 maximum.
          NewPWx=F KeepS1=T KeepF1=T KeepIn=T MapXYZ=F SortEE=F KeepMc=T.
          MDV=      13107146 using IRadAn=       0.
          Keep R1 ints in memory in canonical form, NReq=812704.
 Symmetry not used in FoFDir.
 MinBra= 0 MaxBra= 1 Meth= 1.
 IRaf=       0 NMat=   1 IRICut=       1 DoRegI=T DoRafI=F ISym2E= 0 JSym2E=0.
          Solving linear equations separately, MaxMat=       0.
          There are     1 degrees of freedom in the 1st order CPHF.  IDoFFX=0.
 LinEq1:  Iter=  0 NonCon=     1 RMS=3.76D-03 Max=1.28D-02
 AX will form     1 AO Fock derivatives at one time.
 LinEq1:  Iter=  1 NonCon=     1 RMS=1.39D-03 Max=5.16D-03
 LinEq1:  Iter=  2 NonCon=     1 RMS=1.33D-04 Max=4.67D-04
 LinEq1:  Iter=  3 NonCon=     1 RMS=5.87D-06 Max=3.53D-05
 LinEq1:  Iter=  4 NonCon=     1 RMS=3.02D-07 Max=1.46D-06
 LinEq1:  Iter=  5 NonCon=     1 RMS=1.69D-08 Max=1.00D-07
 LinEq1:  Iter=  6 NonCon=     1 RMS=3.21D-10 Max=1.62D-09
 LinEq1:  Iter=  7 NonCon=     0 RMS=7.37D-12 Max=4.89D-11
 Linear equations converged to 1.000D-10 1.000D-09 after     7 iterations.
 End of Minotr Frequency-dependent properties file   721 does not exist.
 End of Minotr Frequency-dependent properties file   722 does not exist.
 Leave Link 1002 at Sat Aug 17 14:48:09 2024, MaxMem=   13107200 cpu:       0.1
 (Enter /programs/64bit/g09/g09-gfortran/bin/l601.exe)
 Copying SCF densities to generalized density rwf, IOpCl= 0 IROHF=0.

 **********************************************************************

            Population analysis using the SCF density.

 **********************************************************************

 Orbital symmetries:
       Occupied  (A1) (A1) (T2) (T2) (T2)
       Virtual   (A1) (T2) (T2) (T2) (T2) (T2) (T2) (T2) (T2) (T2)
                 (A1) (A1)
 The electronic state is 1-A1.
 Alpha  occ. eigenvalues --  -11.20751  -0.94586  -0.54302  -0.54302  -0.54302
 Alpha virt. eigenvalues --    0.25463   0.32316   0.32316   0.32316   0.74366
 Alpha virt. eigenvalues --    0.74366   0.74366   1.22539   1.22539   1.22539
 Alpha virt. eigenvalues --    1.23922   1.32717
     Molecular Orbital Coefficients:
                           1         2         3         4         5
                        (A1)--O   (A1)--O   (T2)--O   (T2)--O   (T2)--O
     Eigenvalues --   -11.20751  -0.94586  -0.54302  -0.54302  -0.54302
   1 1   C  1S          0.99616  -0.19687   0.00000   0.00000   0.00000
   2        2S          0.02543   0.37319   0.00000   0.00000   0.00000
   3        2PX         0.00000   0.00000   0.43595   0.00000   0.00000
   4        2PY         0.00000   0.00000   0.00000   0.43595   0.00000
   5        2PZ         0.00000   0.00000   0.00000   0.00000   0.43595
   6        3S         -0.01636   0.38579   0.00000   0.00000   0.00000
   7        3PX         0.00000   0.00000   0.22264   0.00000   0.00000
   8        3PY         0.00000   0.00000   0.00000   0.22264   0.00000
   9        3PZ         0.00000   0.00000   0.00000   0.00000   0.22264
  10 2   H  1S         -0.00010   0.13424   0.17360   0.17360   0.17360
  11        2S          0.00309   0.03333   0.14227   0.14227   0.14227
  12 3   H  1S         -0.00010   0.13424  -0.17360  -0.17360   0.17360
  13        2S          0.00309   0.03333  -0.14227  -0.14227   0.14227
  14 4   H  1S         -0.00010   0.13424  -0.17360   0.17360  -0.17360
  15        2S          0.00309   0.03333  -0.14227   0.14227  -0.14227
  16 5   H  1S         -0.00010   0.13424   0.17360  -0.17360  -0.17360
  17        2S          0.00309   0.03333   0.14227  -0.14227  -0.14227
                           6         7         8         9        10
                        (A1)--V   (T2)--V   (T2)--V   (T2)--V   (T2)--V
     Eigenvalues --     0.25463   0.32316   0.32316   0.32316   0.74366
   1 1   C  1S         -0.15397   0.00000   0.00000   0.00000   0.00000
   2        2S          0.09500   0.00000   0.00000   0.00000   0.00000
   3        2PX         0.00000   0.00000   0.00000   0.30105   0.00000
   4        2PY         0.00000   0.00000   0.30105   0.00000   0.00000
   5        2PZ         0.00000   0.30105   0.00000   0.00000  -0.77669
   6        3S          2.75564   0.00000   0.00000   0.00000   0.00000
   7        3PX         0.00000   0.00000   0.00000   1.49197   0.00000
   8        3PY         0.00000   0.00000   1.49197   0.00000   0.00000
   9        3PZ         0.00000   1.49197   0.00000   0.00000   1.46152
  10 2   H  1S          0.00202  -0.04848  -0.04848  -0.04848  -0.31696
  11        2S         -1.03399  -1.15662  -1.15662  -1.15662  -0.11127
  12 3   H  1S          0.00202  -0.04848   0.04848   0.04848  -0.31696
  13        2S         -1.03399  -1.15662   1.15662   1.15662  -0.11127
  14 4   H  1S          0.00202   0.04848  -0.04848   0.04848   0.31696
  15        2S         -1.03399   1.15662  -1.15662   1.15662   0.11127
  16 5   H  1S          0.00202   0.04848   0.04848  -0.04848   0.31696
  17        2S         -1.03399   1.15662   1.15662  -1.15662   0.11127
                          11        12        13        14        15
                        (T2)--V   (T2)--V   (T2)--V   (T2)--V   (T2)--V
     Eigenvalues --     0.74366   0.74366   1.22539   1.22539   1.22539
   1 1   C  1S          0.00000   0.00000   0.00000   0.00000   0.00000
   2        2S          0.00000   0.00000   0.00000   0.00000   0.00000
   3        2PX        -0.77669   0.00000   0.00000  -0.88961   0.00000
   4        2PY         0.00000  -0.77669   0.00000   0.00000  -0.88961
   5        2PZ         0.00000   0.00000  -0.88961   0.00000   0.00000
   6        3S          0.00000   0.00000   0.00000   0.00000   0.00000
   7        3PX         1.46152   0.00000   0.00000   1.02963   0.00000
   8        3PY         0.00000   1.46152   0.00000   0.00000   1.02963
   9        3PZ         0.00000   0.00000   1.02963   0.00000   0.00000
  10 2   H  1S         -0.31696  -0.31696   0.59502   0.59502   0.59502
  11        2S         -0.11127  -0.11127  -0.90498  -0.90498  -0.90498
  12 3   H  1S          0.31696   0.31696   0.59502  -0.59502  -0.59502
  13        2S          0.11127   0.11127  -0.90498   0.90498   0.90498
  14 4   H  1S          0.31696  -0.31696  -0.59502  -0.59502   0.59502
  15        2S          0.11127  -0.11127   0.90498   0.90498  -0.90498
  16 5   H  1S         -0.31696   0.31696  -0.59502   0.59502  -0.59502
  17        2S         -0.11127   0.11127   0.90498  -0.90498   0.90498
                          16        17
                        (A1)--V   (A1)--V
     Eigenvalues --     1.23922   1.32717
   1 1   C  1S          0.10344  -0.07917
   2        2S         -1.04651  -2.15291
   3        2PX         0.00000   0.00000
   4        2PY         0.00000   0.00000
   5        2PZ         0.00000   0.00000
   6        3S          1.43032   5.15870
   7        3PX         0.00000   0.00000
   8        3PY         0.00000   0.00000
   9        3PZ         0.00000   0.00000
  10 2   H  1S          0.62168  -0.35656
  11        2S         -0.57633  -0.94143
  12 3   H  1S          0.62168  -0.35656
  13        2S         -0.57633  -0.94143
  14 4   H  1S          0.62168  -0.35656
  15        2S         -0.57633  -0.94143
  16 5   H  1S          0.62168  -0.35656
  17        2S         -0.57633  -0.94143
     Density Matrix:
                           1         2         3         4         5
   1 1   C  1S          2.06216
   2        2S         -0.09627   0.27984
   3        2PX         0.00000   0.00000   0.38010
   4        2PY         0.00000   0.00000   0.00000   0.38010
   5        2PZ         0.00000   0.00000   0.00000   0.00000   0.38010
   6        3S         -0.18449   0.28711   0.00000   0.00000   0.00000
   7        3PX         0.00000   0.00000   0.19412   0.00000   0.00000
   8        3PY         0.00000   0.00000   0.00000   0.19412   0.00000
   9        3PZ         0.00000   0.00000   0.00000   0.00000   0.19412
  10 2   H  1S         -0.05306   0.10019   0.15136   0.15136   0.15136
  11        2S         -0.00696   0.02503   0.12404   0.12404   0.12404
  12 3   H  1S         -0.05306   0.10019  -0.15136  -0.15136   0.15136
  13        2S         -0.00696   0.02503  -0.12404  -0.12404   0.12404
  14 4   H  1S         -0.05306   0.10019  -0.15136   0.15136  -0.15136
  15        2S         -0.00696   0.02503  -0.12404   0.12404  -0.12404
  16 5   H  1S         -0.05306   0.10019   0.15136  -0.15136  -0.15136
  17        2S         -0.00696   0.02503   0.12404  -0.12404  -0.12404
                           6         7         8         9        10
   6        3S          0.29820
   7        3PX         0.00000   0.09913
   8        3PY         0.00000   0.00000   0.09913
   9        3PZ         0.00000   0.00000   0.00000   0.09913
  10 2   H  1S          0.10358   0.07730   0.07730   0.07730   0.21687
  11        2S          0.02561   0.06335   0.06335   0.06335   0.15713
  12 3   H  1S          0.10358  -0.07730  -0.07730   0.07730  -0.02424
  13        2S          0.02561  -0.06335  -0.06335   0.06335  -0.04045
  14 4   H  1S          0.10358  -0.07730   0.07730  -0.07730  -0.02424
  15        2S          0.02561  -0.06335   0.06335  -0.06335  -0.04045
  16 5   H  1S          0.10358   0.07730  -0.07730  -0.07730  -0.02424
  17        2S          0.02561   0.06335  -0.06335  -0.06335  -0.04045
                          11        12        13        14        15
  11        2S          0.12368
  12 3   H  1S         -0.04045   0.21687
  13        2S         -0.03824   0.15713   0.12368
  14 4   H  1S         -0.04045  -0.02424  -0.04045   0.21687
  15        2S         -0.03824  -0.04045  -0.03824   0.15713   0.12368
  16 5   H  1S         -0.04045  -0.02424  -0.04045  -0.02424  -0.04045
  17        2S         -0.03824  -0.04045  -0.03824  -0.04045  -0.03824
                          16        17
  16 5   H  1S          0.21687
  17        2S          0.15713   0.12368
    Full Mulliken population analysis:
                           1         2         3         4         5
   1 1   C  1S          2.06216
   2        2S         -0.02109   0.27984
   3        2PX         0.00000   0.00000   0.38010
   4        2PY         0.00000   0.00000   0.00000   0.38010
   5        2PZ         0.00000   0.00000   0.00000   0.00000   0.38010
   6        3S         -0.03399   0.23321   0.00000   0.00000   0.00000
   7        3PX         0.00000   0.00000   0.11060   0.00000   0.00000
   8        3PY         0.00000   0.00000   0.00000   0.11060   0.00000
   9        3PZ         0.00000   0.00000   0.00000   0.00000   0.11060
  10 2   H  1S         -0.00174   0.02742   0.03228   0.03228   0.03228
  11        2S         -0.00064   0.01192   0.01903   0.01903   0.01903
  12 3   H  1S         -0.00174   0.02742   0.03228   0.03228   0.03228
  13        2S         -0.00064   0.01192   0.01903   0.01903   0.01903
  14 4   H  1S         -0.00174   0.02742   0.03228   0.03228   0.03228
  15        2S         -0.00064   0.01192   0.01903   0.01903   0.01903
  16 5   H  1S         -0.00174   0.02742   0.03228   0.03228   0.03228
  17        2S         -0.00064   0.01192   0.01903   0.01903   0.01903
                           6         7         8         9        10
   6        3S          0.29820
   7        3PX         0.00000   0.09913
   8        3PY         0.00000   0.00000   0.09913
   9        3PZ         0.00000   0.00000   0.00000   0.09913
  10 2   H  1S          0.03905   0.02298   0.02298   0.02298   0.21687
  11        2S          0.01805   0.02131   0.02131   0.02131   0.10344
  12 3   H  1S          0.03905   0.02298   0.02298   0.02298  -0.00045
  13        2S          0.01805   0.02131   0.02131   0.02131  -0.00603
  14 4   H  1S          0.03905   0.02298   0.02298   0.02298  -0.00045
  15        2S          0.01805   0.02131   0.02131   0.02131  -0.00603
  16 5   H  1S          0.03905   0.02298   0.02298   0.02298  -0.00045
  17        2S          0.01805   0.02131   0.02131   0.02131  -0.00603
                          11        12        13        14        15
  11        2S          0.12368
  12 3   H  1S         -0.00603   0.21687
  13        2S         -0.01536   0.10344   0.12368
  14 4   H  1S         -0.00603  -0.00045  -0.00603   0.21687
  15        2S         -0.01536  -0.00603  -0.01536   0.10344   0.12368
  16 5   H  1S         -0.00603  -0.00045  -0.00603  -0.00045  -0.00603
  17        2S         -0.01536  -0.00603  -0.01536  -0.00603  -0.01536
                          16        17
  16 5   H  1S          0.21687
  17        2S          0.10344   0.12368
     Gross orbital populations:
                           1
   1 1   C  1S          1.99757
   2        2S          0.64932
   3        2PX         0.69594
   4        2PY         0.69594
   5        2PZ         0.69594
   6        3S          0.72582
   7        3PX         0.38691
   8        3PY         0.38691
   9        3PZ         0.38691
  10 2   H  1S          0.53139
  11        2S          0.31330
  12 3   H  1S          0.53139
  13        2S          0.31330
  14 4   H  1S          0.53139
  15        2S          0.31330
  16 5   H  1S          0.53139
  17        2S          0.31330
          Condensed to atoms (all electrons):
              1          2          3          4          5
     1  C    5.097758   0.380871   0.380871   0.380871   0.380871
     2  H    0.380871   0.547426  -0.027869  -0.027869  -0.027869
     3  H    0.380871  -0.027869   0.547426  -0.027869  -0.027869
     4  H    0.380871  -0.027869  -0.027869   0.547426  -0.027869
     5  H    0.380871  -0.027869  -0.027869  -0.027869   0.547426
 Mulliken atomic charges:
              1
     1  C   -0.621243
     2  H    0.155311
     3  H    0.155311
     4  H    0.155311
     5  H    0.155311
 Sum of Mulliken atomic charges =   0.00000
 Mulliken charges with hydrogens summed into heavy atoms:
              1
     1  C    0.000000
 Sum of Mulliken charges with hydrogens summed into heavy atoms =   0.00000
 Electronic spatial extent (au):  <R**2>=             35.7992
 Charge=              0.0000 electrons
 Dipole moment (field-independent basis, Debye):
    X=             -0.0000    Y=             -0.0000    Z=              0.0000  Tot=              0.0000
 Quadrupole moment (field-independent basis, Debye-Ang):
   XX=             -8.4414   YY=             -8.4414   ZZ=             -8.4414
   XY=             -0.0000   XZ=             -0.0000   YZ=             -0.0000
 Traceless Quadrupole moment (field-independent basis, Debye-Ang):
   XX=             -0.0000   YY=             -0.0000   ZZ=              0.0000
   XY=             -0.0000   XZ=             -0.0000   YZ=             -0.0000
 Octapole moment (field-independent basis, Debye-Ang**2):
  XXX=              0.0000  YYY=             -0.0000  ZZZ=              0.0000  XYY=              0.0000
  XXY=              0.0000  XXZ=              0.0000  XZZ=              0.0000  YZZ=             -0.0000
  YYZ=             -0.0000  XYZ=              0.6355
 Hexadecapole moment (field-independent basis, Debye-Ang**3):
 XXXX=            -16.0215 YYYY=            -16.0215 ZZZZ=            -16.0215 XXXY=              0.0000
 XXXZ=             -0.0000 YYYX=             -0.0000 YYYZ=             -0.0000 ZZZX=             -0.0000
 ZZZY=             -0.0000 XXYY=             -4.9288 XXZZ=             -4.9288 YYZZ=             -4.9288
 XXYZ=             -0.0000 YYXZ=             -0.0000 ZZXY=             -0.0000
 N-N= 1.343538919541D+01 E-N=-1.198759488749D+02  KE= 4.020924780148D+01
 Symmetry A    KE= 3.452920513020D+01
 Symmetry B1   KE= 1.893347557092D+00
 Symmetry B2   KE= 1.893347557092D+00
 Symmetry B3   KE= 1.893347557092D+00
 Orbital energies and kinetic energies (alpha):
                                 1                 2
   1         (A1)--O         -11.207508         16.018101
   2         (A1)--O          -0.945857          1.246502
   3         (T2)--O          -0.543019          0.946674
   4         (T2)--O          -0.543019          0.946674
   5         (T2)--O          -0.543019          0.946674
   6         (A1)--V           0.254627          0.852677
   7         (T2)--V           0.323162          0.729299
   8         (T2)--V           0.323162          0.729299
   9         (T2)--V           0.323162          0.729299
  10         (T2)--V           0.743665          1.605131
  11         (T2)--V           0.743665          1.605131
  12         (T2)--V           0.743665          1.605131
  13         (T2)--V           1.225391          2.834296
  14         (T2)--V           1.225391          2.834296
  15         (T2)--V           1.225391          2.834296
  16         (A1)--V           1.239220          2.939433
  17         (A1)--V           1.327168          2.016107
 Total kinetic energy from orbitals= 4.020924780148D+01
 No NMR shielding tensors so no spin-rotation constants.
 Leave Link  601 at Sat Aug 17 14:48:09 2024, MaxMem=   13107200 cpu:       0.1
 (Enter /programs/64bit/g09/g09-gfortran/bin/l701.exe)
 Compute integral first derivatives.
 ... and contract with generalized density number  2.
 Leave Link  701 at Sat Aug 17 14:48:10 2024, MaxMem=   13107200 cpu:       0.1
 (Enter /programs/64bit/g09/g09-gfortran/bin/l702.exe)
 L702 exits ... SP integral derivatives will be done elsewhere.
 Leave Link  702 at Sat Aug 17 14:48:10 2024, MaxMem=   13107200 cpu:       0.0
 (Enter /programs/64bit/g09/g09-gfortran/bin/l703.exe)
 Compute integral first derivatives, UseDBF=F ICtDFT=           0.
 Integral derivatives from FoFDir, PRISM(SPDF).
 Calling FoFJK, ICntrl=      2127 FMM=F ISym2X=1 I1Cent= 0 IOpClX= 0 NMat=1 NMatS=1 NMatT=0.
 FoFCou: FMM=F IPFlag=           0 FMFlag=      100000 FMFlg1=         800
         NFxFlg=           0 DoJE=F BraDBF=F KetDBF=F FulRan=T
         Omega=  0.000000  0.000000  1.000000  0.000000  0.000000 ICntrl=    2127 IOpCl=  0
         NMat0=    1 NMatS0=    1 NMatT0=    0 NMatD0=    1 NMtDS0=    0 NMtDT0=    0
         I1Cent=           0 NGrid=           0.
 Petite list used in FoFCou.
 Leave Link  703 at Sat Aug 17 14:48:10 2024, MaxMem=   13107200 cpu:       0.1
 (Enter /programs/64bit/g09/g09-gfortran/bin/l716.exe)
 Dipole        = 0.00000000D+00-2.22044605D-16-2.22044605D-16
 ***** Axes restored to original set *****
 -------------------------------------------------------------------
 Center     Atomic                   Forces (Hartrees/Bohr)
 Number     Number              X              Y              Z
 -------------------------------------------------------------------
      1        6           0.000000000   -0.000000000    0.000000000
      2        1          -0.000000000   -0.000000000    0.003732613
      3        1           0.003519141   -0.000000000   -0.001244204
      4        1          -0.001759571   -0.003047666   -0.001244204
      5        1          -0.001759571    0.003047666   -0.001244204
 -------------------------------------------------------------------
 Cartesian Forces:  Max     0.003732613 RMS     0.001927513
 Leave Link  716 at Sat Aug 17 14:48:10 2024, MaxMem=   13107200 cpu:       0.0
 (Enter /programs/64bit/g09/g09-gfortran/bin/l103.exe)

 GradGradGradGradGradGradGradGradGradGradGradGradGradGradGradGradGradGrad
 Berny optimization.
 Internal  Forces:  Max     0.003732613 RMS     0.001995165
 Search for a local minimum.
 Step number   1 out of a maximum of   24
 All quantities printed in internal units (Hartrees-Bohrs-Radians)
 RMS Force = .19952D-02 SwitMx=.10000D-02 MixMth= 1
 Mixed Optimization -- RFO/linear search
 Second derivative matrix not updated -- first step.
 The second derivative matrix:
                          R1        R2        R3        R4        A1
           R1           0.34813
           R2           0.00000   0.34813
           R3           0.00000   0.00000   0.34813
           R4           0.00000   0.00000   0.00000   0.34813
           A1           0.00000   0.00000   0.00000   0.00000   0.16000
           A2           0.00000   0.00000   0.00000   0.00000   0.00000
           A3           0.00000   0.00000   0.00000   0.00000   0.00000
           A4           0.00000   0.00000   0.00000   0.00000   0.00000
           A5           0.00000   0.00000   0.00000   0.00000   0.00000
           A6           0.00000   0.00000   0.00000   0.00000   0.00000
           D1           0.00000   0.00000   0.00000   0.00000   0.00000
           D2           0.00000   0.00000   0.00000   0.00000   0.00000
           D3           0.00000   0.00000   0.00000   0.00000   0.00000
           D4           0.00000   0.00000   0.00000   0.00000   0.00000
                          A2        A3        A4        A5        A6
           A2           0.16000
           A3           0.00000   0.16000
           A4           0.00000   0.00000   0.16000
           A5           0.00000   0.00000   0.00000   0.16000
           A6           0.00000   0.00000   0.00000   0.00000   0.16000
           D1           0.00000   0.00000   0.00000   0.00000   0.00000
           D2           0.00000   0.00000   0.00000   0.00000   0.00000
           D3           0.00000   0.00000   0.00000   0.00000   0.00000
           D4           0.00000   0.00000   0.00000   0.00000   0.00000
                          D1        D2        D3        D4
           D1           0.00235
           D2           0.00000   0.00235
           D3           0.00000   0.00000   0.00235
           D4           0.00000   0.00000   0.00000   0.00235
     Eigenvalues ---    0.05086   0.05718   0.08643   0.16000   0.16000
     Eigenvalues ---    0.34813   0.34813   0.34813   0.348131000.00000
     Eigenvalues --- 1000.000001000.000001000.000001000.00000
 RFO step:  Lambda=-1.60010798D-04 EMin= 5.08565158D-02
 Linear search not attempted -- first point.
 Iteration  1 RMS(Cart)=  0.00572852 RMS(Int)=  0.00000000
 Iteration  2 RMS(Cart)=  0.00000000 RMS(Int)=  0.00000000
 ClnCor:  largest displacement from symmetrization is 1.39D-14 for atom     4.
 Variable       Old X    -DE/DX   Delta X   Delta X   Delta X     New X
                                 (Linear)    (Quad)   (Total)
    R1        2.05980   0.00373   0.00000   0.01072   0.01072   2.07052
    R2        2.05980   0.00373   0.00000   0.01072   0.01072   2.07052
    R3        2.05980   0.00373   0.00000   0.01072   0.01072   2.07052
    R4        2.05980   0.00373   0.00000   0.01072   0.01072   2.07052
    A1        1.91063   0.00000   0.00000   0.00000   0.00000   1.91063
    A2        1.91063  -0.00000   0.00000  -0.00000  -0.00000   1.91063
    A3        1.91063  -0.00000   0.00000  -0.00000  -0.00000   1.91063
    A4        1.91063  -0.00000   0.00000  -0.00000  -0.00000   1.91063
    A5        1.91063   0.00000   0.00000   0.00000  -0.00000   1.91063
    A6        1.91063   0.00000   0.00000   0.00000   0.00000   1.91063
    D1       -2.09440  -0.00000   0.00000  -0.00000   0.00000  -2.09440
    D2        2.09440   0.00000   0.00000   0.00000   0.00000   2.09440
    D3       -2.09440   0.00000   0.00000   0.00000   0.00000  -2.09440
    D4        2.09440  -0.00000   0.00000  -0.00000   0.00000   2.09440
         Item               Value     Threshold  Converged?
 Maximum Force            0.003733     0.000450     NO 
 RMS     Force            0.001995     0.000300     NO 
 Maximum Displacement     0.010717     0.001800     NO 
 RMS     Displacement     0.005729     0.001200     NO 
 Predicted change in Energy=-8.004217D-05
 GradGradGradGradGradGradGradGradGradGradGradGradGradGradGradGradGradGrad

 Leave Link  103 at Sat Aug 17 14:48:10 2024, MaxMem=   13107200 cpu:       0.0
 (Enter /programs/64bit/g09/g09-gfortran/bin/l202.exe)
                          Input orientation:                          
 ---------------------------------------------------------------------
 Center     Atomic      Atomic             Coordinates (Angstroms)
 Number     Number       Type             X           Y           Z
 ---------------------------------------------------------------------
      1          6           0        0.000000    0.000000   -0.000000
      2          1           0        0.000000    0.000000    1.095671
      3          1           0        1.033009   -0.000000   -0.365224
      4          1           0       -0.516504   -0.894612   -0.365224
      5          1           0       -0.516504    0.894612   -0.365224
 ---------------------------------------------------------------------
                    Distance matrix (angstroms):
                    1          2          3          4          5
     1  C    0.000000
     2  H    1.095671   0.000000
     3  H    1.095671   1.789224   0.000000
     4  H    1.095671   1.789224   1.789224   0.000000
     5  H    1.095671   1.789224   1.789224   1.789224   0.000000
 Stoichiometry    CH4
 Framework group  TD[O(C),4C3(H)]
 Deg. of freedom     1
 Prev. full point group           TD      NOp  24
 Prev. largest Abelian subgroup   D2      NOp   4
       concise Abelian subgroup   D2      NOp   4
                   Standard orientation:
 ---------------------------------------------------------------------
 Center     Atomic                     Coordinates (Angstroms)
 Number     Number                        X           Y           Z
 ---------------------------------------------------------------------
      1          6                    0.000000    0.000000    0.000000
      2          1                    0.774757    0.619805    0.464854
      3          1                   -0.600482   -0.480386    0.780478
      4          1                   -0.645997    0.628865   -0.622666
      5          1                    0.471722   -0.768284   -0.622666
 ---------------------------------------------------------------------
 TstSym:  Max error for IOp=  4 IAt=    3 Err= 5.96D-01
 TstSym:  IOp= 25 I=    6 IP=    4 Err= 5.96D-01
  CI=  0.000000000000D+00  0.000000000000D+00  0.000000000000D+00
   T=  1.134747252206D+00  9.077978017649D-01  1.474889470163D+00
 CIP= -1.220756768909D+00  1.188382234435D+00 -1.176668050266D+00
 Unable to use previous symmetry information.  Redetermining point group.
 No symmetry information on checkpoint file.  Reassigning symmetry.
 Symm:  InNGrp=TD   InAxis=0.
 Stoichiometry    CH4
 Framework group  TD[O(C),4C3(H)]
 Deg. of freedom     1
 Full point group                 TD      NOp  24
 Largest Abelian subgroup         D2      NOp   4
 Largest concise Abelian subgroup D2      NOp   4
                         Standard orientation:                         
 ---------------------------------------------------------------------
 Center     Atomic      Atomic             Coordinates (Angstroms)
 Number     Number       Type             X           Y           Z
 ---------------------------------------------------------------------
      1          6           0        0.000000    0.000000    0.000000
      2          1           0        0.632586    0.632586    0.632586
      3          1           0       -0.632586   -0.632586    0.632586
      4          1           0       -0.632586    0.632586   -0.632586
      5          1           0        0.632586   -0.632586   -0.632586
 ---------------------------------------------------------------------
 Rotational constants (GHZ):    156.6400457    156.6400457    156.6400457
 Leave Link  202 at Sat Aug 17 14:48:10 2024, MaxMem=   13107200 cpu:       0.0
 (Enter /programs/64bit/g09/g09-gfortran/bin/l301.exe)
 Standard basis: 6-31G (6D, 7F)
 Ernie: Thresh=  0.10000D-02 Tol=  0.10000D-05 Strict=F.
 There are     5 symmetry adapted basis functions of A   symmetry.
 There are     4 symmetry adapted basis functions of B1  symmetry.
 There are     4 symmetry adapted basis functions of B2  symmetry.
 There are     4 symmetry adapted basis functions of B3  symmetry.
 Integral buffers will be    131072 words long.
 Raffenetti 1 integral format.
 Two-electron integral symmetry is turned on.
    17 basis functions,    38 primitive gaussians,    17 cartesian basis functions
     5 alpha electrons        5 beta electrons
       nuclear repulsion energy        13.3658471329 Hartrees.
 IExCor=    0 DFT=F Ex=HF Corr=None ExCW=0 ScaHFX=  1.000000
 ScaDFX=  1.000000  1.000000  1.000000  1.000000 ScalE2=  1.000000  1.000000
 IRadAn=      0 IRanWt=     -1 IRanGd=            0 ICorTp=0
 NAtoms=    5 NActive=    5 NUniq=    2 SFac= 3.00D+00 NAtFMM=   80 NAOKFM=F Big=F
 Leave Link  301 at Sat Aug 17 14:48:10 2024, MaxMem=   13107200 cpu:       0.1
 (Enter /programs/64bit/g09/g09-gfortran/bin/l302.exe)
 NPDir=0 NMtPBC=     1 NCelOv=     1 NCel=       1 NClECP=     1 NCelD=      1
         NCelK=      1 NCelE2=     1 NClLst=     1 CellRange=     0.0.
 One-electron integrals computed using PRISM.
 One-electron integral symmetry used in STVInt
 NBasis=    17 RedAO= T  NBF=     5     4     4     4
 NBsUse=    17 1.00D-06 NBFU=     5     4     4     4
 Leave Link  302 at Sat Aug 17 14:48:10 2024, MaxMem=   13107200 cpu:       0.1
 (Enter /programs/64bit/g09/g09-gfortran/bin/l303.exe)
 DipDrv:  MaxL=1.
 Leave Link  303 at Sat Aug 17 14:48:10 2024, MaxMem=   13107200 cpu:       0.0
 (Enter /programs/64bit/g09/g09-gfortran/bin/l401.exe)
 Initial guess read from the read-write file.
 B after Tr=     0.000000    0.000000    0.000000
         Rot=    1.000000    0.000000    0.000000    0.000000 Ang=   0.00 deg.
 Guess basis will be translated and rotated to current coordinates.
 Initial guess orbital symmetries:
       Occupied  (A1) (A1) (T2) (T2) (T2)
       Virtual   (A1) (T2) (T2) (T2) (T2) (T2) (T2) (T2) (T2) (T2)
                 (A1) (A1)
 The electronic state of the initial guess is 1-A1.
 Leave Link  401 at Sat Aug 17 14:48:10 2024, MaxMem=   13107200 cpu:       0.1
 (Enter /programs/64bit/g09/g09-gfortran/bin/l502.exe)
 Closed shell SCF:
 Requested convergence on RMS density matrix=1.00D-08 within 128 cycles.
 Requested convergence on MAX density matrix=1.00D-06.
 Requested convergence on             energy=1.00D-06.
 No special actions if energy rises.
 Using DIIS extrapolation, IDIIS=  1040.
 Integral symmetry usage will be decided dynamically.
 Keep R1 ints in memory in canonical form, NReq=831858.
 IEnd=       20063 IEndB=       20063 NGot=    13107200 MDV=    13092431
 LenX=    13092431 LenY=    13091549
 Symmetry not used in FoFDir.
 MinBra= 0 MaxBra= 1 Meth= 1.
 IRaf=       0 NMat=   1 IRICut=       1 DoRegI=T DoRafI=F ISym2E= 0 JSym2E=0.

 Cycle   1  Pass 1  IDiag  1:
 E= -40.1800368219868    
 DIIS: error= 9.09D-04 at cycle   1 NSaved=   1.
 NSaved= 1 IEnMin= 1 EnMin= -40.1800368219868     IErMin= 1 ErrMin= 9.09D-04
 ErrMax= 9.09D-04 EMaxC= 1.00D-01 BMatC= 1.73D-05 BMatP= 1.73D-05
 IDIUse=3 WtCom= 9.91D-01 WtEn= 9.09D-03
 Coeff-Com:  0.100D+01
 Coeff-En:   0.100D+01
 Coeff:      0.100D+01
 Gap=     0.794 Goal=   None    Shift=    0.000
 RMSDP=2.67D-04 MaxDP=1.29D-03              OVMax= 1.67D-03

 Cycle   2  Pass 1  IDiag  1:
 E= -40.1800565400970     Delta-E=       -0.000019718110 Rises=F Damp=F
 DIIS: error= 3.15D-04 at cycle   2 NSaved=   2.
 NSaved= 2 IEnMin= 2 EnMin= -40.1800565400970     IErMin= 2 ErrMin= 3.15D-04
 ErrMax= 3.15D-04 EMaxC= 1.00D-01 BMatC= 2.34D-06 BMatP= 1.73D-05
 IDIUse=3 WtCom= 9.97D-01 WtEn= 3.15D-03
 Coeff-Com:  0.208D+00 0.792D+00
 Coeff-En:   0.000D+00 0.100D+01
 Coeff:      0.208D+00 0.792D+00
 Gap=     0.795 Goal=   None    Shift=    0.000
 RMSDP=6.51D-05 MaxDP=3.97D-04 DE=-1.97D-05 OVMax= 3.94D-04

 Cycle   3  Pass 1  IDiag  1:
 E= -40.1800588623699     Delta-E=       -0.000002322273 Rises=F Damp=F
 DIIS: error= 5.63D-05 at cycle   3 NSaved=   3.
 NSaved= 3 IEnMin= 3 EnMin= -40.1800588623699     IErMin= 3 ErrMin= 5.63D-05
 ErrMax= 5.63D-05 EMaxC= 1.00D-01 BMatC= 5.83D-08 BMatP= 2.34D-06
 IDIUse=1 WtCom= 1.00D+00 WtEn= 0.00D+00
 Coeff-Com: -0.629D-01-0.192D-01 0.108D+01
 Coeff:     -0.629D-01-0.192D-01 0.108D+01
 Gap=     0.795 Goal=   None    Shift=    0.000
 RMSDP=1.63D-05 MaxDP=8.55D-05 DE=-2.32D-06 OVMax= 8.62D-05

 Cycle   4  Pass 1  IDiag  1:
 E= -40.1800589437066     Delta-E=       -0.000000081337 Rises=F Damp=F
 DIIS: error= 3.26D-06 at cycle   4 NSaved=   4.
 NSaved= 4 IEnMin= 4 EnMin= -40.1800589437066     IErMin= 4 ErrMin= 3.26D-06
 ErrMax= 3.26D-06 EMaxC= 1.00D-01 BMatC= 3.39D-10 BMatP= 5.83D-08
 IDIUse=1 WtCom= 1.00D+00 WtEn= 0.00D+00
 Coeff-Com:  0.114D-01 0.558D-02-0.235D+00 0.122D+01
 Coeff:      0.114D-01 0.558D-02-0.235D+00 0.122D+01
 Gap=     0.795 Goal=   None    Shift=    0.000
 RMSDP=3.45D-06 MaxDP=1.12D-05 DE=-8.13D-08 OVMax= 1.14D-05

 Cycle   5  Pass 1  IDiag  1:
 E= -40.1800589444887     Delta-E=       -0.000000000782 Rises=F Damp=F
 DIIS: error= 4.82D-07 at cycle   5 NSaved=   5.
 NSaved= 5 IEnMin= 5 EnMin= -40.1800589444887     IErMin= 5 ErrMin= 4.82D-07
 ErrMax= 4.82D-07 EMaxC= 1.00D-01 BMatC= 6.18D-12 BMatP= 3.39D-10
 IDIUse=1 WtCom= 1.00D+00 WtEn= 0.00D+00
 Coeff-Com: -0.154D-02-0.404D-03 0.320D-01-0.263D+00 0.123D+01
 Coeff:     -0.154D-02-0.404D-03 0.320D-01-0.263D+00 0.123D+01
 Gap=     0.795 Goal=   None    Shift=    0.000
 RMSDP=5.47D-07 MaxDP=1.74D-06 DE=-7.82D-10 OVMax= 1.71D-06

 Cycle   6  Pass 1  IDiag  1:
 E= -40.1800589445031     Delta-E=       -0.000000000014 Rises=F Damp=F
 DIIS: error= 9.86D-08 at cycle   6 NSaved=   6.
 NSaved= 6 IEnMin= 6 EnMin= -40.1800589445031     IErMin= 6 ErrMin= 9.86D-08
 ErrMax= 9.86D-08 EMaxC= 1.00D-01 BMatC= 5.93D-14 BMatP= 6.18D-12
 IDIUse=1 WtCom= 1.00D+00 WtEn= 0.00D+00
 Coeff-Com:  0.454D-03 0.177D-03-0.966D-02 0.825D-01-0.417D+00 0.134D+01
 Coeff:      0.454D-03 0.177D-03-0.966D-02 0.825D-01-0.417D+00 0.134D+01
 Gap=     0.795 Goal=   None    Shift=    0.000
 RMSDP=2.60D-08 MaxDP=1.88D-07 DE=-1.44D-11 OVMax= 1.59D-07

 Cycle   7  Pass 1  IDiag  1:
 E= -40.1800589445032     Delta-E=       -0.000000000000 Rises=F Damp=F
 DIIS: error= 2.52D-09 at cycle   7 NSaved=   7.
 NSaved= 7 IEnMin= 7 EnMin= -40.1800589445032     IErMin= 7 ErrMin= 2.52D-09
 ErrMax= 2.52D-09 EMaxC= 1.00D-01 BMatC= 7.66D-17 BMatP= 5.93D-14
 IDIUse=1 WtCom= 1.00D+00 WtEn= 0.00D+00
 Coeff-Com: -0.451D-04-0.189D-04 0.965D-03-0.835D-02 0.429D-01-0.161D+00
 Coeff-Com:  0.113D+01
 Coeff:     -0.451D-04-0.189D-04 0.965D-03-0.835D-02 0.429D-01-0.161D+00
 Coeff:      0.113D+01
 Gap=     0.795 Goal=   None    Shift=    0.000
 RMSDP=1.54D-09 MaxDP=1.59D-08 DE=-1.07D-13 OVMax= 7.62D-09

 SCF Done:  E(RHF) =  -40.1800589445     A.U. after    7 cycles
             Convg  =    0.1542D-08             -V/T =  2.0001
 KE= 4.017744925690D+01 PE=-1.197122370388D+02 EE= 2.598888170451D+01
 Leave Link  502 at Sat Aug 17 14:48:10 2024, MaxMem=   13107200 cpu:       0.1
 (Enter /programs/64bit/g09/g09-gfortran/bin/l801.exe)
 ExpMin= 1.61D-01 ExpMax= 3.05D+03 ExpMxC= 4.57D+02 IAcc=1 IRadAn=         1 AccDes= 0.00D+00
 HarFok:  IExCor=  205 AccDes= 0.00D+00 IRadAn=         1 IDoV=-2
 ScaDFX=  1.000000  1.000000  1.000000  1.000000
 Largest valence mixing into a core orbital is  1.07D-04
 Largest core mixing into a valence orbital is  3.29D-05
 Range of M.O.s used for correlation:     2    17
 NBasis=    17 NAE=     5 NBE=     5 NFC=     1 NFV=     0
 NROrb=     16 NOA=     4 NOB=     4 NVA=    12 NVB=    12
 Leave Link  801 at Sat Aug 17 14:48:10 2024, MaxMem=   13107200 cpu:       0.1
 (Enter /programs/64bit/g09/g09-gfortran/bin/l906.exe)
 Frozen-core derivative calculation, NFC=   1 NFV=   0.
 FulOut=F Deriv=T AODrv=T NAtomX=     5
   MMem=        4256  MDisk=           4 MDiskD=           4
  W3Min=        1445 MinDsk=       53995 NBas6D=          17
 NBas2D=         165    NTT=         153    LW2=     2000000
    MDV=    13096355 MDiskM=        6799 NBas2p=          87
 Fully direct method using O(ONN) memory.
 IMap=   1   2   3   4   5
 JobTyp=1 Pass  1:  I=   2 to   5 NPSUse=  1 ParTrn=F ParDer=F DoDerP=T.
 Spin components of T(2) and E(2):
     alpha-alpha T2 =       0.3153101981D-02 E2=     -0.8092297024D-02
     alpha-beta  T2 =       0.3105217030D-01 E2=     -0.8288543699D-01
     beta-beta   T2 =       0.3153101981D-02 E2=     -0.8092297024D-02
 The integrals were generated   1 times.
 ANorm=    0.1018507916D+01
 E2 =    -0.9907003104D-01 EUMP2 =    -0.40279128975542D+02
 Leave Link  906 at Sat Aug 17 14:48:11 2024, MaxMem=   13107200 cpu:       0.2
 (Enter /programs/64bit/g09/g09-gfortran/bin/l1002.exe)
 Minotr:  Closed shell wavefunction.
          Computing MP2/KS-MP2 derivatives.
          Using Z-Vector for PSCF gradient.
          Skipping F1 and S1 gradient terms here.
          IDoAtm=11111
          Frozen-core window.
          Direct CPHF calculation.
          Differentiating once with respect to electric field.
                with respect to dipole field.
          Differentiating once with respect to nuclear coordinates.
          Using symmetry in CPHF.
          Requested convergence is 1.0D-10 RMS, and 1.0D-09 maximum.
          NewPWx=F KeepS1=T KeepF1=T KeepIn=T MapXYZ=F SortEE=F KeepMc=T.
          MDV=      13107146 using IRadAn=       0.
          Keep R1 ints in memory in canonical form, NReq=812704.
 Symmetry not used in FoFDir.
 MinBra= 0 MaxBra= 1 Meth= 1.
 IRaf=       0 NMat=   1 IRICut=       1 DoRegI=T DoRafI=F ISym2E= 0 JSym2E=0.
          Solving linear equations separately, MaxMat=       0.
          There are     1 degrees of freedom in the 1st order CPHF.  IDoFFX=0.
 LinEq1:  Iter=  0 NonCon=     1 RMS=3.84D-03 Max=1.29D-02
 AX will form     1 AO Fock derivatives at one time.
 LinEq1:  Iter=  1 NonCon=     1 RMS=1.45D-03 Max=5.40D-03
 LinEq1:  Iter=  2 NonCon=     1 RMS=1.35D-04 Max=4.68D-04
 LinEq1:  Iter=  3 NonCon=     1 RMS=6.08D-06 Max=3.63D-05
 LinEq1:  Iter=  4 NonCon=     1 RMS=3.11D-07 Max=1.51D-06
 LinEq1:  Iter=  5 NonCon=     1 RMS=1.72D-08 Max=1.02D-07
 LinEq1:  Iter=  6 NonCon=     1 RMS=3.28D-10 Max=1.63D-09
 LinEq1:  Iter=  7 NonCon=     0 RMS=7.64D-12 Max=5.05D-11
 Linear equations converged to 1.000D-10 1.000D-09 after     7 iterations.
 End of Minotr Frequency-dependent properties file   721 does not exist.
 End of Minotr Frequency-dependent properties file   722 does not exist.
 Leave Link 1002 at Sat Aug 17 14:48:11 2024, MaxMem=   13107200 cpu:       0.1
 (Enter /programs/64bit/g09/g09-gfortran/bin/l701.exe)
 Compute integral first derivatives.
 ... and contract with generalized density number  2.
 Leave Link  701 at Sat Aug 17 14:48:11 2024, MaxMem=   13107200 cpu:       0.1
 (Enter /programs/64bit/g09/g09-gfortran/bin/l702.exe)
 L702 exits ... SP integral derivatives will be done elsewhere.
 Leave Link  702 at Sat Aug 17 14:48:11 2024, MaxMem=   13107200 cpu:       0.0
 (Enter /programs/64bit/g09/g09-gfortran/bin/l703.exe)
 Compute integral first derivatives, UseDBF=F ICtDFT=           0.
 Integral derivatives from FoFDir, PRISM(SPDF).
 Calling FoFJK, ICntrl=      2127 FMM=F ISym2X=1 I1Cent= 0 IOpClX= 0 NMat=1 NMatS=1 NMatT=0.
 FoFCou: FMM=F IPFlag=           0 FMFlag=      100000 FMFlg1=         800
         NFxFlg=           0 DoJE=F BraDBF=F KetDBF=F FulRan=T
         Omega=  0.000000  0.000000  1.000000  0.000000  0.000000 ICntrl=    2127 IOpCl=  0
         NMat0=    1 NMatS0=    1 NMatT0=    0 NMatD0=    1 NMtDS0=    0 NMtDT0=    0
         I1Cent=           0 NGrid=           0.
 Petite list used in FoFCou.
 Leave Link  703 at Sat Aug 17 14:48:11 2024, MaxMem=   13107200 cpu:       0.1
 (Enter /programs/64bit/g09/g09-gfortran/bin/l716.exe)
 Dipole        = 2.22044605D-16 0.00000000D+00-2.22044605D-16
 ***** Axes restored to original set *****
 -------------------------------------------------------------------
 Center     Atomic                   Forces (Hartrees/Bohr)
 Number     Number              X              Y              Z
 -------------------------------------------------------------------
      1        6          -0.000000000   -0.000000000   -0.000000000
      2        1          -0.000000000    0.000000000   -0.000157960
      3        1          -0.000148926   -0.000000000    0.000052653
      4        1           0.000074463    0.000128974    0.000052653
      5        1           0.000074463   -0.000128974    0.000052653
 -------------------------------------------------------------------
 Cartesian Forces:  Max     0.000157960 RMS     0.000081570
 Leave Link  716 at Sat Aug 17 14:48:11 2024, MaxMem=   13107200 cpu:       0.0
 (Enter /programs/64bit/g09/g09-gfortran/bin/l103.exe)

 GradGradGradGradGradGradGradGradGradGradGradGradGradGradGradGradGradGrad
 Berny optimization.
 Using GEDIIS/GDIIS optimizer.
 Internal  Forces:  Max     0.000157960 RMS     0.000084433
 Search for a local minimum.
 Step number   2 out of a maximum of   24
 All quantities printed in internal units (Hartrees-Bohrs-Radians)
 RMS Force = .84433D-04 SwitMx=.10000D-02 MixMth= 2
 Mixed Optimization -- En-DIIS/RFO-DIIS
 Update second derivatives using D2CorX and points    1    2
 DE= -7.62D-05 DEPred=-8.00D-05 R= 9.52D-01
 SS=  1.41D+00  RLast= 2.14D-02 DXNew= 5.0454D-01 6.4302D-02
 Trust test= 9.52D-01 RLast= 2.14D-02 DXMaxT set to 3.00D-01
 The second derivative matrix:
                          R1        R2        R3        R4        A1
           R1           0.35185
           R2           0.00372   0.35185
           R3           0.00372   0.00372   0.35185
           R4           0.00372   0.00372   0.00372   0.35185
           A1           0.00000   0.00000   0.00000   0.00000   0.16000
           A2          -0.00000  -0.00000  -0.00000  -0.00000  -0.00000
           A3          -0.00000  -0.00000  -0.00000  -0.00000  -0.00000
           A4          -0.00000  -0.00000  -0.00000  -0.00000  -0.00000
           A5          -0.00000  -0.00000  -0.00000  -0.00000  -0.00000
           A6           0.00000   0.00000   0.00000   0.00000   0.00000
           D1          -0.00000  -0.00000  -0.00000  -0.00000  -0.00000
           D2           0.00000   0.00000   0.00000   0.00000   0.00000
           D3           0.00000   0.00000   0.00000   0.00000   0.00000
           D4          -0.00000  -0.00000  -0.00000  -0.00000  -0.00000
                          A2        A3        A4        A5        A6
           A2           0.16000
           A3           0.00000   0.16000
           A4           0.00000   0.00000   0.16000
           A5           0.00000   0.00000   0.00000   0.16000
           A6          -0.00000  -0.00000  -0.00000  -0.00000   0.16000
           D1           0.00000   0.00000   0.00000   0.00000  -0.00000
           D2          -0.00000  -0.00000  -0.00000  -0.00000   0.00000
           D3          -0.00000  -0.00000  -0.00000  -0.00000   0.00000
           D4           0.00000   0.00000   0.00000   0.00000  -0.00000
                          D1        D2        D3        D4
           D1           0.00235
           D2          -0.00000   0.00235
           D3          -0.00000   0.00000   0.00235
           D4           0.00000  -0.00000  -0.00000   0.00235
 Use linear search instead of GDIIS.
     Eigenvalues ---    0.05086   0.05718   0.08643   0.16000   0.16000
     Eigenvalues ---    0.34813   0.34813   0.34813   0.363031000.00000
     Eigenvalues --- 1000.000001000.000001000.000001000.00000
 RFO step:  Lambda= 0.00000000D+00 EMin= 5.08565158D-02
 Quartic linear search produced a step of -0.04122.
 Iteration  1 RMS(Cart)=  0.00023613 RMS(Int)=  0.00000000
 Iteration  2 RMS(Cart)=  0.00000000 RMS(Int)=  0.00000000
 ClnCor:  largest displacement from symmetrization is 1.00D-14 for atom     3.
 Variable       Old X    -DE/DX   Delta X   Delta X   Delta X     New X
                                 (Linear)    (Quad)   (Total)
    R1        2.07052  -0.00016  -0.00044  -0.00000  -0.00044   2.07008
    R2        2.07052  -0.00016  -0.00044   0.00000  -0.00044   2.07008
    R3        2.07052  -0.00016  -0.00044  -0.00000  -0.00044   2.07008
    R4        2.07052  -0.00016  -0.00044  -0.00000  -0.00044   2.07008
    A1        1.91063  -0.00000  -0.00000   0.00000   0.00000   1.91063
    A2        1.91063   0.00000   0.00000   0.00000   0.00000   1.91063
    A3        1.91063  -0.00000   0.00000  -0.00000  -0.00000   1.91063
    A4        1.91063   0.00000   0.00000   0.00000   0.00000   1.91063
    A5        1.91063   0.00000   0.00000   0.00000   0.00000   1.91063
    A6        1.91063  -0.00000  -0.00000  -0.00000  -0.00000   1.91063
    D1       -2.09440  -0.00000   0.00000  -0.00000   0.00000  -2.09440
    D2        2.09440  -0.00000   0.00000  -0.00000   0.00000   2.09440
    D3       -2.09440   0.00000  -0.00000   0.00000  -0.00000  -2.09440
    D4        2.09440   0.00000   0.00000   0.00000  -0.00000   2.09440
         Item               Value     Threshold  Converged?
 Maximum Force            0.000158     0.000450     YES
 RMS     Force            0.000084     0.000300     YES
 Maximum Displacement     0.000442     0.001800     YES
 RMS     Displacement     0.000236     0.001200     YES
 Predicted change in Energy=-1.374318D-07
 Optimization completed.
    -- Stationary point found.
                           ----------------------------
                           !   Optimized Parameters   !
                           ! (Angstroms and Degrees)  !
 --------------------------                            --------------------------
 ! Name  Definition              Value          Derivative Info.                !
 --------------------------------------------------------------------------------
 ! R1    R(1,2)                  1.0957         -DE/DX =   -0.0002              !
 ! R2    R(1,3)                  1.0957         -DE/DX =   -0.0002              !
 ! R3    R(1,4)                  1.0957         -DE/DX =   -0.0002              !
 ! R4    R(1,5)                  1.0957         -DE/DX =   -0.0002              !
 ! A1    A(2,1,3)              109.4712         -DE/DX =    0.0                 !
 ! A2    A(2,1,4)              109.4712         -DE/DX =    0.0                 !
 ! A3    A(2,1,5)              109.4712         -DE/DX =    0.0                 !
 ! A4    A(3,1,4)              109.4712         -DE/DX =    0.0                 !
 ! A5    A(3,1,5)              109.4712         -DE/DX =    0.0                 !
 ! A6    A(4,1,5)              109.4712         -DE/DX =    0.0                 !
 ! D1    D(2,1,4,3)           -120.0            -DE/DX =    0.0                 !
 ! D2    D(2,1,5,3)            120.0            -DE/DX =    0.0                 !
 ! D3    D(2,1,5,4)           -120.0            -DE/DX =    0.0                 !
 ! D4    D(3,1,5,4)            120.0            -DE/DX =    0.0                 !
 --------------------------------------------------------------------------------
 GradGradGradGradGradGradGradGradGradGradGradGradGradGradGradGradGradGrad

 Largest change from initial coordinates is atom    2       0.006 Angstoms.
 Leave Link  103 at Sat Aug 17 14:48:11 2024, MaxMem=   13107200 cpu:       0.0
 (Enter /programs/64bit/g09/g09-gfortran/bin/l202.exe)
                          Input orientation:                          
 ---------------------------------------------------------------------
 Center     Atomic      Atomic             Coordinates (Angstroms)
 Number     Number       Type             X           Y           Z
 ---------------------------------------------------------------------
      1          6           0        0.000000    0.000000   -0.000000
      2          1           0        0.000000   -0.000000    1.095671
      3          1           0        1.033009   -0.000000   -0.365224
      4          1           0       -0.516504   -0.894612   -0.365224
      5          1           0       -0.516504    0.894612   -0.365224
 ---------------------------------------------------------------------
                    Distance matrix (angstroms):
                    1          2          3          4          5
     1  C    0.000000
     2  H    1.095671   0.000000
     3  H    1.095671   1.789224   0.000000
     4  H    1.095671   1.789224   1.789224   0.000000
     5  H    1.095671   1.789224   1.789224   1.789224   0.000000
 Stoichiometry    CH4
 Framework group  TD[O(C),4C3(H)]
 Deg. of freedom     1
 Prev. full point group           TD      NOp  24
 Prev. largest Abelian subgroup   D2      NOp   4
       concise Abelian subgroup   D2      NOp   4
                   Standard orientation:
 ---------------------------------------------------------------------
 Center     Atomic                     Coordinates (Angstroms)
 Number     Number                        X           Y           Z
 ---------------------------------------------------------------------
      1          6                    0.000000    0.000000    0.000000
      2          1                    0.880598    0.540367    0.364754
      3          1                   -0.586641   -0.359984    0.852502
      4          1                   -0.614875    0.672306   -0.608628
      5          1                    0.320918   -0.852690   -0.608628
 ---------------------------------------------------------------------
 TstSym:  Max error for IOp=  2 IAt=    5 Err= 1.06D+00
 TstSym:  IOp= 25 I=    6 IP=    4 Err= 1.06D+00
  CI=  0.000000000000D+00  0.000000000000D+00  0.000000000000D+00
   T=  6.064465953862D-01  1.611349640633D+00  1.150139985850D+00
 CIP= -1.161945855728D+00  1.270475094515D+00 -1.150139985850D+00
 Unable to use previous symmetry information.  Redetermining point group.
 No symmetry information on checkpoint file.  Reassigning symmetry.
 Symm:  InNGrp=TD   InAxis=0.
 Stoichiometry    CH4
 Framework group  TD[O(C),4C3(H)]
 Deg. of freedom     1
 Full point group                 TD      NOp  24
 Largest Abelian subgroup         D2      NOp   4
 Largest concise Abelian subgroup D2      NOp   4
                         Standard orientation:                         
 ---------------------------------------------------------------------
 Center     Atomic      Atomic             Coordinates (Angstroms)
 Number     Number       Type             X           Y           Z
 ---------------------------------------------------------------------
      1          6           0        0.000000    0.000000    0.000000
      2          1           0        0.632586    0.632586    0.632586
      3          1           0       -0.632586   -0.632586    0.632586
      4          1           0       -0.632586    0.632586   -0.632586
      5          1           0        0.632586   -0.632586   -0.632586
 ---------------------------------------------------------------------
 Rotational constants (GHZ):    156.6400457    156.6400457    156.6400457
 Leave Link  202 at Sat Aug 17 14:48:11 2024, MaxMem=   13107200 cpu:       0.0
 (Enter /programs/64bit/g09/g09-gfortran/bin/l601.exe)
 Copying SCF densities to generalized density rwf, IOpCl= 0 IROHF=0.

 **********************************************************************

            Population analysis using the SCF density.

 **********************************************************************

 Orbital symmetries:
       Occupied  (A1) (A1) (T2) (T2) (T2)
       Virtual   (A1) (T2) (T2) (T2) (T2) (T2) (T2) (T2) (T2) (T2)
                 (A1) (A1)
 The electronic state is 1-A1.
 Alpha  occ. eigenvalues --  -11.21022  -0.94356  -0.54158  -0.54158  -0.54158
 Alpha virt. eigenvalues --    0.25342   0.32154   0.32154   0.32154   0.74600
 Alpha virt. eigenvalues --    0.74600   0.74600   1.21986   1.21986   1.21986
 Alpha virt. eigenvalues --    1.22978   1.32566
     Molecular Orbital Coefficients:
                           1         2         3         4         5
                        (A1)--O   (A1)--O   (T2)--O   (T2)--O   (T2)--O
     Eigenvalues --   -11.21022  -0.94356  -0.54158  -0.54158  -0.54158
   1 1   C  1S          0.99616  -0.19664   0.00000   0.00000   0.00000
   2        2S          0.02535   0.37269   0.00000   0.00000   0.00000
   3        2PX         0.00000   0.00000   0.00000   0.00000   0.43494
   4        2PY         0.00000   0.00000   0.00000   0.43494   0.00000
   5        2PZ         0.00000   0.00000   0.43494   0.00000   0.00000
   6        3S         -0.01619   0.38811   0.00000   0.00000   0.00000
   7        3PX         0.00000   0.00000   0.00000   0.00000   0.22358
   8        3PY         0.00000   0.00000   0.00000   0.22358   0.00000
   9        3PZ         0.00000   0.00000   0.22358   0.00000   0.00000
  10 2   H  1S         -0.00010   0.13369   0.17321   0.17321   0.17321
  11        2S          0.00306   0.03360   0.14291   0.14291   0.14291
  12 3   H  1S         -0.00010   0.13369   0.17321  -0.17321  -0.17321
  13        2S          0.00306   0.03360   0.14291  -0.14291  -0.14291
  14 4   H  1S         -0.00010   0.13369  -0.17321   0.17321  -0.17321
  15        2S          0.00306   0.03360  -0.14291   0.14291  -0.14291
  16 5   H  1S         -0.00010   0.13369  -0.17321  -0.17321   0.17321
  17        2S          0.00306   0.03360  -0.14291  -0.14291   0.14291
                           6         7         8         9        10
                        (A1)--V   (T2)--V   (T2)--V   (T2)--V   (T2)--V
     Eigenvalues --     0.25342   0.32154   0.32154   0.32154   0.74600
   1 1   C  1S         -0.15431   0.00000   0.00000   0.00000   0.00000
   2        2S          0.09747   0.00000   0.00000   0.00000   0.00000
   3        2PX         0.00000   0.00000   0.00000   0.30260   0.00000
   4        2PY         0.00000   0.00000   0.30260   0.00000   0.00000
   5        2PZ         0.00000   0.30260   0.00000   0.00000  -0.78220
   6        3S          2.72510   0.00000   0.00000   0.00000   0.00000
   7        3PX         0.00000   0.00000   0.00000   1.48132   0.00000
   8        3PY         0.00000   0.00000   1.48132   0.00000   0.00000
   9        3PZ         0.00000   1.48132   0.00000   0.00000   1.46026
  10 2   H  1S          0.00080  -0.04905  -0.04905  -0.04905  -0.31626
  11        2S         -1.02593  -1.14521  -1.14521  -1.14521  -0.11003
  12 3   H  1S          0.00080  -0.04905   0.04905   0.04905  -0.31626
  13        2S         -1.02593  -1.14521   1.14521   1.14521  -0.11003
  14 4   H  1S          0.00080   0.04905  -0.04905   0.04905   0.31626
  15        2S         -1.02593   1.14521  -1.14521   1.14521   0.11003
  16 5   H  1S          0.00080   0.04905   0.04905  -0.04905   0.31626
  17        2S         -1.02593   1.14521   1.14521  -1.14521   0.11003
                          11        12        13        14        15
                        (T2)--V   (T2)--V   (T2)--V   (T2)--V   (T2)--V
     Eigenvalues --     0.74600   0.74600   1.21986   1.21986   1.21986
   1 1   C  1S          0.00000   0.00000   0.00000   0.00000   0.00000
   2        2S          0.00000   0.00000   0.00000   0.00000   0.00000
   3        2PX         0.00000  -0.78220   0.00000   0.00000  -0.88228
   4        2PY        -0.78220   0.00000   0.00000  -0.88228   0.00000
   5        2PZ         0.00000   0.00000  -0.88228   0.00000   0.00000
   6        3S          0.00000   0.00000   0.00000   0.00000   0.00000
   7        3PX         0.00000   1.46026   0.00000   0.00000   1.02344
   8        3PY         1.46026   0.00000   0.00000   1.02344   0.00000
   9        3PZ         0.00000   0.00000   1.02344   0.00000   0.00000
  10 2   H  1S         -0.31626  -0.31626   0.59460   0.59460   0.59460
  11        2S         -0.11003  -0.11003  -0.90198  -0.90198  -0.90198
  12 3   H  1S          0.31626   0.31626   0.59460  -0.59460  -0.59460
  13        2S          0.11003   0.11003  -0.90198   0.90198   0.90198
  14 4   H  1S         -0.31626   0.31626  -0.59460   0.59460  -0.59460
  15        2S         -0.11003   0.11003   0.90198  -0.90198   0.90198
  16 5   H  1S          0.31626  -0.31626  -0.59460  -0.59460   0.59460
  17        2S          0.11003  -0.11003   0.90198   0.90198  -0.90198
                          16        17
                        (A1)--V   (A1)--V
     Eigenvalues --     1.22978   1.32566
   1 1   C  1S          0.10367  -0.07688
   2        2S         -1.01533  -2.16344
   3        2PX         0.00000   0.00000
   4        2PY         0.00000   0.00000
   5        2PZ         0.00000   0.00000
   6        3S          1.37823   5.11951
   7        3PX         0.00000   0.00000
   8        3PY         0.00000   0.00000
   9        3PZ         0.00000   0.00000
  10 2   H  1S          0.62349  -0.34840
  11        2S         -0.56878  -0.93397
  12 3   H  1S          0.62349  -0.34840
  13        2S         -0.56878  -0.93397
  14 4   H  1S          0.62349  -0.34840
  15        2S         -0.56878  -0.93397
  16 5   H  1S          0.62349  -0.34840
  17        2S         -0.56878  -0.93397
     Density Matrix:
                           1         2         3         4         5
   1 1   C  1S          2.06202
   2        2S         -0.09607   0.27908
   3        2PX         0.00000   0.00000   0.37834
   4        2PY         0.00000   0.00000  -0.00000   0.37834
   5        2PZ         0.00000   0.00000   0.00000   0.00000   0.37834
   6        3S         -0.18489   0.28847   0.00000   0.00000   0.00000
   7        3PX         0.00000   0.00000   0.19448  -0.00000   0.00000
   8        3PY         0.00000   0.00000  -0.00000   0.19448   0.00000
[...]
 Temperature   298.150 Kelvin.  Pressure   1.00000 Atm.
 Atom     1 has atomic number  6 and mass  12.00000
 Atom     2 has atomic number  1 and mass   1.00783
 Atom     3 has atomic number  1 and mass   1.00783
 Atom     4 has atomic number  1 and mass   1.00783
 Atom     5 has atomic number  1 and mass   1.00783
 Molecular mass:    16.03130 amu.
 Principal axes and moments of inertia in atomic units:
                           1         2         3
     Eigenvalues --    11.52158  11.52158  11.52158
           X           -0.07176   0.95238  -0.29634
           Y            0.94973  -0.02553  -0.31204
           Z            0.30475   0.30383   0.90267
 This molecule is a spherical top.
 Rotational symmetry number 12.
 Rotational temperatures (Kelvin)      7.51753     7.51753     7.51753
 Rotational constants (GHZ):         156.64005   156.64005   156.64005
 Zero-point vibrational energy     120840.9 (Joules/Mol)
                                   28.88168 (Kcal/Mol)
 Vibrational temperatures:   2074.44  2074.44  2074.44  2330.94  2330.94
          (Kelvin)           4404.07  4592.78  4592.78  4592.78
 
 Zero-point correction=                           0.046026 (Hartree/Particle)
 Thermal correction to Energy=                    0.048883
 Thermal correction to Enthalpy=                  0.049827
 Thermal correction to Gibbs Free Energy=         0.028698
 Sum of electronic and zero-point Energies=            -40.233103
 Sum of electronic and thermal Energies=               -40.230246
 Sum of electronic and thermal Enthalpies=             -40.229302
 Sum of electronic and thermal Free Energies=          -40.250431
 
                     E (Thermal)             CV                S
                      KCal/Mol        Cal/Mol-Kelvin    Cal/Mol-Kelvin
 Total                   30.675              6.335             44.471
 Electronic               0.000              0.000              0.000
 Translational            0.889              2.981             34.261
 Rotational               0.889              2.981             10.151
 Vibrational             28.897              0.373              0.059
                       Q            Log10(Q)             Ln(Q)
 Total Bot       0.631016D-13        -13.199960        -30.394030
 Total V=0       0.934182D+08          7.970432         18.352597
 Vib (Bot)       0.677952D-21        -21.168801        -48.742966
 Vib (V=0)       0.100367D+01          0.001590          0.003661
 Electronic      0.100000D+01          0.000000          0.000000
 Translational   0.252295D+07          6.401908         14.740939
 Rotational      0.368921D+02          1.566933          3.607997
 
                                     methane with imposed symmetry Td and hf/6-31
 G basis function
                                                             IR Spectrum
 
      3    3                                                        1      1                                                         
      1    0                                                        6      4                                                         
      9    6                                                        2      4                                                         
      2    1                                                        0      2                                                         
 
      X                                                                    X                                                         
      X                                                                    X                                                         
      X                                                                    X                                                         
      X                                                                    X                                                         
      X                                                                    X                                                         
      X                                                                    X                                                         
      X                                                                    X                                                         
      X                                                                    X                                                         
      X                                                                    X                                                         
      X                                                                    X                                                         
      X                                                                    X                                                         
      X                                                                    X                                                         
      X                                                                                                                              
      X                                                                                                                              
      X                                                                                                                              
      X                                                                                                                              
      X                                                                                                                              
      X                                                                                                                              
      X                                                                                                                              
      X                                                                                                                              
 
 ***** Axes restored to original set *****
 -------------------------------------------------------------------
 Center     Atomic                   Forces (Hartrees/Bohr)
 Number     Number              X              Y              Z
 -------------------------------------------------------------------
      1        6           0.000000000    0.000000000    0.000000000
      2        1          -0.000000000   -0.000000000   -0.000157960
      3        1          -0.000148926    0.000000000    0.000052653
      4        1           0.000074463    0.000128974    0.000052653
      5        1           0.000074463   -0.000128974    0.000052653
 -------------------------------------------------------------------
 Cartesian Forces:  Max     0.000157960 RMS     0.000081570
 Force constants in Cartesian coordinates: 
                1             2             3             4             5 
      1  0.568728D+00
      2  0.000000D+00  0.568728D+00
      3  0.000000D+00  0.000000D+00  0.568728D+00
      4 -0.514678D-01  0.000000D+00  0.000000D+00  0.499898D-01
      5  0.000000D+00 -0.514678D-01  0.000000D+00  0.000000D+00  0.499898D-01
      6  0.000000D+00  0.000000D+00 -0.323611D+00  0.000000D+00  0.000000D+00
      7 -0.293373D+00  0.000000D+00  0.855262D-01  0.108599D-02  0.000000D+00
      8  0.000000D+00 -0.514678D-01  0.000000D+00  0.000000D+00 -0.100634D-03
      9  0.855262D-01  0.000000D+00 -0.817059D-01  0.349458D-01  0.000000D+00
     10 -0.111944D+00 -0.104748D+00 -0.427631D-01  0.196021D-03  0.513822D-03
     11 -0.104748D+00 -0.232896D+00 -0.740679D-01  0.513822D-03  0.789332D-03
     12 -0.427631D-01 -0.740679D-01 -0.817059D-01 -0.174729D-01 -0.302640D-01
     13 -0.111944D+00  0.104748D+00 -0.427631D-01  0.196021D-03 -0.513822D-03
     14  0.104748D+00 -0.232896D+00  0.740679D-01 -0.513822D-03  0.789332D-03
     15 -0.427631D-01  0.740679D-01 -0.817059D-01 -0.174729D-01  0.302640D-01
                6             7             8             9            10 
      6  0.354585D+00
      7 -0.267132D-02  0.320741D+00
      8  0.000000D+00  0.000000D+00  0.499898D-01
      9 -0.103248D-01 -0.957250D-01  0.000000D+00  0.838337D-01
     10  0.133566D-02 -0.142272D-01 -0.283619D-01 -0.123735D-01  0.117678D+00
     11  0.231343D-02  0.235240D-02  0.789332D-03 -0.286708D-03  0.117239D+00
     12 -0.103248D-01  0.643505D-02  0.105724D-01  0.409849D-02  0.478625D-01
     13  0.133566D-02 -0.142272D-01  0.283619D-01 -0.123735D-01  0.829762D-02
     14 -0.231343D-02 -0.235240D-02  0.789332D-03  0.286708D-03  0.153571D-01
     15 -0.103248D-01  0.643505D-02 -0.105724D-01  0.409849D-02  0.593846D-02
               11            12            13            14            15 
     11  0.253053D+00
     12  0.829003D-01  0.838337D-01
     13 -0.153571D-01  0.593846D-02  0.117678D+00
     14 -0.217355D-01  0.108591D-01 -0.117239D+00  0.253053D+00
     15 -0.108591D-01  0.409849D-02  0.478625D-01 -0.829003D-01  0.838337D-01
 Force constants in internal coordinates: 
                1             2             3             4             5 
      1  0.354585D+00
      2  0.923044D-03  0.354585D+00
      3  0.923044D-03  0.923044D-03  0.354585D+00
      4  0.923044D-03  0.923044D-03  0.923044D-03  0.354585D+00
      5  0.242550D-02  0.242550D-02 -0.152299D-02 -0.332801D-02  0.214455D-01
      6  0.380133D-02 -0.980990D-03  0.423052D-02 -0.705086D-02 -0.916460D-02
      7  0.742854D-02 -0.596196D-02 -0.659961D-02  0.513303D-02 -0.140804D-01
      8 -0.980990D-03  0.380133D-02  0.423052D-02 -0.705086D-02 -0.916460D-02
      9 -0.596196D-02  0.742854D-02 -0.659961D-02  0.513303D-02 -0.140804D-01
     10 -0.671242D-02 -0.671242D-02  0.626117D-02  0.716368D-02  0.250445D-01
     11 -0.469772D-02 -0.469772D-02 -0.331604D-02  0.127115D-01 -0.150409D-01
     12  0.386871D-02  0.386871D-02 -0.994811D-02  0.221069D-02  0.902035D-02
     13 -0.509420D-02  0.896291D-02 -0.497405D-02  0.110535D-02  0.451018D-02
     14 -0.896291D-02  0.509420D-02  0.497405D-02 -0.110535D-02 -0.451018D-02
                6             7             8             9            10 
      6  0.407882D-01
      7 -0.245824D-01  0.796697D-01
      8 -0.162143D-02  0.257150D-01  0.407882D-01
      9  0.257150D-01 -0.380361D-01 -0.245824D-01  0.796697D-01
     10 -0.311348D-01 -0.286857D-01 -0.311348D-01 -0.286857D-01  0.945965D-01
     11 -0.127604D-01  0.165513D-01 -0.127604D-01  0.165513D-01  0.745904D-02
     12 -0.105307D-01  0.825036D-02 -0.105307D-01  0.825036D-02 -0.445960D-02
     13 -0.158355D-01 -0.111393D-02  0.530475D-02  0.936429D-02 -0.222980D-02
     14 -0.530475D-02 -0.936429D-02  0.158355D-01  0.111393D-02  0.222980D-02
               11            12            13            14 
     11  0.340495D-01
     12  0.184984D-02  0.211522D-01
     13  0.924919D-03  0.105761D-01  0.214420D-01
     14 -0.924919D-03 -0.105761D-01  0.108659D-01  0.214420D-01
 Leave Link  716 at Sat Aug 17 14:48:16 2024, MaxMem=   13107200 cpu:       0.0
 (Enter /programs/64bit/g09/g09-gfortran/bin/l103.exe)

 GradGradGradGradGradGradGradGradGradGradGradGradGradGradGradGradGradGrad
 Berny optimization.
 Internal  Forces:  Max     0.000157960 RMS     0.000084433
 Search for a local minimum.
 Step number   1 out of a maximum of    2
 All quantities printed in internal units (Hartrees-Bohrs-Radians)
 Second derivative matrix not updated -- analytic derivatives used.
 The second derivative matrix:
                          R1        R2        R3        R4        A1
           R1           0.35458
           R2           0.00092   0.35458
           R3           0.00092   0.00092   0.35458
           R4           0.00092   0.00092   0.00092   0.35458
           A1           0.00243   0.00243  -0.00152  -0.00333   0.02145
           A2           0.00380  -0.00098   0.00423  -0.00705  -0.00916
           A3           0.00743  -0.00596  -0.00660   0.00513  -0.01408
           A4          -0.00098   0.00380   0.00423  -0.00705  -0.00916
           A5          -0.00596   0.00743  -0.00660   0.00513  -0.01408
           A6          -0.00671  -0.00671   0.00626   0.00716   0.02504
           D1          -0.00470  -0.00470  -0.00332   0.01271  -0.01504
           D2           0.00387   0.00387  -0.00995   0.00221   0.00902
           D3          -0.00509   0.00896  -0.00497   0.00111   0.00451
           D4          -0.00896   0.00509   0.00497  -0.00111  -0.00451
                          A2        A3        A4        A5        A6
           A2           0.04079
           A3          -0.02458   0.07967
           A4          -0.00162   0.02572   0.04079
           A5           0.02572  -0.03804  -0.02458   0.07967
           A6          -0.03113  -0.02869  -0.03113  -0.02869   0.09460
           D1          -0.01276   0.01655  -0.01276   0.01655   0.00746
           D2          -0.01053   0.00825  -0.01053   0.00825  -0.00446
           D3          -0.01584  -0.00111   0.00530   0.00936  -0.00223
           D4          -0.00530  -0.00936   0.01584   0.00111   0.00223
                          D1        D2        D3        D4
           D1           0.03405
           D2           0.00185   0.02115
           D3           0.00092   0.01058   0.02144
           D4          -0.00092  -0.01058   0.01087   0.02144
     Eigenvalues ---    0.04300   0.04854   0.07410   0.14222   0.14244
     Eigenvalues ---    0.35509   0.35511   0.35555   0.357351000.00000
     Eigenvalues --- 1000.000001000.000001000.000001000.00000
 Angle between quadratic step and forces=   0.00 degrees.
 Linear search not attempted -- first point.
 Iteration  1 RMS(Cart)=  0.00023627 RMS(Int)=  0.00000000
 Iteration  2 RMS(Cart)=  0.00000000 RMS(Int)=  0.00000000
 ClnCor:  largest displacement from symmetrization is 1.32D-14 for atom     5.
 Variable       Old X    -DE/DX   Delta X   Delta X   Delta X     New X
                                 (Linear)    (Quad)   (Total)
    R1        2.07052  -0.00016   0.00000  -0.00044  -0.00044   2.07008
    R2        2.07052  -0.00016   0.00000  -0.00044  -0.00044   2.07008
    R3        2.07052  -0.00016   0.00000  -0.00044  -0.00044   2.07008
    R4        2.07052  -0.00016   0.00000  -0.00044  -0.00044   2.07008
    A1        1.91063   0.00000   0.00000   0.00000  -0.00000   1.91063
    A2        1.91063   0.00000   0.00000   0.00000   0.00000   1.91063
    A3        1.91063  -0.00000   0.00000  -0.00000   0.00000   1.91063
    A4        1.91063   0.00000   0.00000   0.00000   0.00000   1.91063
    A5        1.91063   0.00000   0.00000   0.00000   0.00000   1.91063
    A6        1.91063  -0.00000   0.00000  -0.00000  -0.00000   1.91063
    D1       -2.09440  -0.00000   0.00000  -0.00000   0.00000  -2.09440
    D2        2.09440   0.00000   0.00000   0.00000  -0.00000   2.09440
    D3       -2.09440   0.00000   0.00000   0.00000   0.00000  -2.09440
    D4        2.09440  -0.00000   0.00000  -0.00000   0.00000   2.09440
         Item               Value     Threshold  Converged?
 Maximum Force            0.000158     0.000450     YES
 RMS     Force            0.000084     0.000300     YES
 Maximum Displacement     0.000442     0.001800     YES
 RMS     Displacement     0.000236     0.001200     YES
 Predicted change in Energy=-1.396452D-07
 Optimization completed.
    -- Stationary point found.
                           ----------------------------
                           !   Optimized Parameters   !
                           ! (Angstroms and Degrees)  !
 --------------------------                            --------------------------
 ! Name  Definition              Value          Derivative Info.                !
 --------------------------------------------------------------------------------
 ! R1    R(1,2)                  1.0957         -DE/DX =   -0.0002              !
 ! R2    R(1,3)                  1.0957         -DE/DX =   -0.0002              !
 ! R3    R(1,4)                  1.0957         -DE/DX =   -0.0002              !
 ! R4    R(1,5)                  1.0957         -DE/DX =   -0.0002              !
 ! A1    A(2,1,3)              109.4712         -DE/DX =    0.0                 !
 ! A2    A(2,1,4)              109.4712         -DE/DX =    0.0                 !
 ! A3    A(2,1,5)              109.4712         -DE/DX =    0.0                 !
 ! A4    A(3,1,4)              109.4712         -DE/DX =    0.0                 !
 ! A5    A(3,1,5)              109.4712         -DE/DX =    0.0                 !
 ! A6    A(4,1,5)              109.4712         -DE/DX =    0.0                 !
 ! D1    D(2,1,4,3)           -120.0            -DE/DX =    0.0                 !
 ! D2    D(2,1,5,3)            120.0            -DE/DX =    0.0                 !
 ! D3    D(2,1,5,4)           -120.0            -DE/DX =    0.0                 !
 ! D4    D(3,1,5,4)            120.0            -DE/DX =    0.0                 !
 --------------------------------------------------------------------------------
 GradGradGradGradGradGradGradGradGradGradGradGradGradGradGradGradGradGrad

 Leave Link  103 at Sat Aug 17 14:48:16 2024, MaxMem=   13107200 cpu:       0.0
 (Enter /programs/64bit/g09/g09-gfortran/bin/l9999.exe)
 1\1\GINC-MOLMOD\Freq\RMP2-FC\6-31G\C1H4\OSPITE\17-Aug-2024\0\\#P Geom=
 AllCheck Guess=TCheck SCRF=Check GenChk RMP2(FC)/6-31G Freq\\methane w
 ith imposed symmetry Td and hf/6-31G basis function\\0,1\C,0.,0.,0.\H,
 0.,0.,1.0956712341\H,1.0330087461,0.,-0.3652237447\H,-0.5165043731,-0.
 8946118165,-0.3652237447\H,-0.5165043731,0.8946118165,-0.3652237447\\V
 ersion=EM64L-G09RevA.02\State=1-A1\HF=-40.1800589\MP2=-40.279129\RMSD=
 1.042e-10\RMSF=8.157e-05\ZeroPoint=0.0460259\Thermal=0.0488832\Dipole=
 0.,0.,0.\DipoleDeriv=-0.0095616,0.,0.,0.,-0.0095616,0.,0.,0.,-0.009561
 6,0.0812027,0.,0.,0.,0.0812027,0.,0.,0.,-0.1552342,-0.1289634,0.,0.074
 305,0.,0.0812027,0.,0.074305,0.,0.054932,0.0286612,-0.0910046,-0.03715
 25,-0.0910046,-0.0764219,-0.06435,-0.0371525,-0.06435,0.054932,0.02866
 12,0.0910046,-0.0371525,0.0910046,-0.0764219,0.06435,-0.0371525,0.0643
 5,0.054932\Polar=12.1299766,0.,12.1299766,0.,0.,12.1299766\PG=TD [O(C1
 ),4C3(H1)]\NImag=0\\0.56872841,0.,0.56872841,0.,0.,0.56872841,-0.05146
 784,0.,0.,0.04998981,0.,-0.05146784,0.,0.,0.04998981,0.,0.,-0.32361062
 ,0.,0.,0.35458493,-0.29337254,0.,0.08552622,0.00108599,0.,-0.00267132,
 0.32074103,0.,-0.05146784,0.,0.,-0.00010063,0.,0.,0.04998981,0.0855262
 2,0.,-0.08170593,0.03494582,0.,-0.01032477,-0.09572501,0.,0.08383372,-
 0.11194402,-0.10474780,-0.04276311,0.00019602,0.00051382,0.00133566,-0
 .01422724,-0.02836186,-0.01237351,0.11767762,-0.10474780,-0.23289636,-
 0.07406788,0.00051382,0.00078933,0.00231343,0.00235240,0.00078933,-0.0
 0028671,0.11723872,0.25305323,-0.04276311,-0.07406788,-0.08170593,-0.0
 1747291,-0.03026396,-0.01032477,0.00643505,0.01057242,0.00409849,0.047
 86251,0.08290029,0.08383372,-0.11194402,0.10474780,-0.04276311,0.00019
 602,-0.00051382,0.00133566,-0.01422724,0.02836186,-0.01237351,0.008297
 62,-0.01535713,0.00593846,0.11767762,0.10474780,-0.23289636,0.07406788
 ,-0.00051382,0.00078933,-0.00231343,-0.00235240,0.00078933,0.00028671,
 0.01535713,-0.02173553,0.01085913,-0.11723872,0.25305323,-0.04276311,0
 .07406788,-0.08170593,-0.01747291,0.03026396,-0.01032477,0.00643505,-0
 .01057242,0.00409849,0.00593846,-0.01085913,0.00409849,0.04786251,-0.0
 8290029,0.08383372\\0.,0.,0.,0.,0.,0.00015796,0.00014893,0.,-0.0000526
 5,-0.00007446,-0.00012897,-0.00005265,-0.00007446,0.00012897,-0.000052
 65\\\@


 GARLIC THEN HAVE POWER TO SAVE FROM DEATH
 BEAR WITH IT THOUGH IT MAKETH UNSAVORY BREATH,
 AND SCORN NOT GARLIC LIKE SOME THAT THINK
 IT ONLY MAKETH MEN WINK AND DRINK AND STINK.
   --  SIR JOHN HARRINGTON,
       "THE ENGLISHMAN'S DOCTOR", 1609
 Job cpu time:  0 days  0 hours  0 minutes  3.8 seconds.
 File lengths (MBytes):  RWF=     19 Int=      0 D2E=      0 Chk=      1 Scr=      1
 Normal termination of Gaussian 09 at Sat Aug 17 14:48:16 2024.
