 Entering Gaussian System, Link 0=/programs/64bit/g09/g09-gfortran/bin/g09
 Input=ch4_++.com
 Output=ch4_++.log
 Initial command:
 /programs/64bit/g09/g09-gfortran/bin/l1.exe /home/ospite/Desktop/MMfP/Project6/CH4/g09/MP2/Gau-4345.inp -scrdir=/home/ospite/Desktop/MMfP/Project6/CH4/g09/MP2/
 Entering Link 1 = /programs/64bit/g09/g09-gfortran/bin/l1.exe PID=      4346.
  
 Copyright (c) 1988,1990,1992,1993,1995,1998,2003,2009, Gaussian, Inc.
                  All Rights Reserved.
  
 This is part of the Gaussian(R) 09 program.  It is based on
 the Gaussian(R) 03 system (copyright 2003, Gaussian, Inc.),
 the Gaussian(R) 98 system (copyright 1998, Gaussian, Inc.),
 the Gaussian(R) 94 system (copyright 1995, Gaussian, Inc.),
 the Gaussian 92(TM) system (copyright 1992, Gaussian, Inc.),
 the Gaussian 90(TM) system (copyright 1990, Gaussian, Inc.),
 the Gaussian 88(TM) system (copyright 1988, Gaussian, Inc.),
 the Gaussian 86(TM) system (copyright 1986, Carnegie Mellon
 University), and the Gaussian 82(TM) system (copyright 1983,
 Carnegie Mellon University). Gaussian is a federally registered
 trademark of Gaussian, Inc.
  
 This software contains proprietary and confidential information,
 including trade secrets, belonging to Gaussian, Inc.
  
 This software is provided under written license and may be
 used, copied, transmitted, or stored only in accord with that
 written license.
  
 The following legend is applicable only to US Government
 contracts under FAR:
  
                    RESTRICTED RIGHTS LEGEND
  
 Use, reproduction and disclosure by the US Government is
 subject to restrictions as set forth in subparagraphs (a)
 and (c) of the Commercial Computer Software - Restricted
 Rights clause in FAR 52.227-19.
  
 Gaussian, Inc.
 340 Quinnipiac St., Bldg. 40, Wallingford CT 06492
  
  
 ---------------------------------------------------------------
 Warning -- This program may not be used in any manner that
 competes with the business of Gaussian, Inc. or will provide
 assistance to any competitor of Gaussian, Inc.  The licensee
 of this program is prohibited from giving any competitor of
 Gaussian, Inc. access to this program.  By using this program,
 the user acknowledges that Gaussian, Inc. is engaged in the
 business of creating and licensing software in the field of
 computational chemistry and represents and warrants to the
 licensee that it is not a competitor of Gaussian, Inc. and that
 it will not use this program in any manner prohibited above.
 ---------------------------------------------------------------
  

 Cite this work as:
 Gaussian 09, Revision A.02,
 M. J. Frisch, G. W. Trucks, H. B. Schlegel, G. E. Scuseria, 
 M. A. Robb, J. R. Cheeseman, G. Scalmani, V. Barone, B. Mennucci, 
 G. A. Petersson, H. Nakatsuji, M. Caricato, X. Li, H. P. Hratchian, 
 A. F. Izmaylov, J. Bloino, G. Zheng, J. L. Sonnenberg, M. Hada, 
 M. Ehara, K. Toyota, R. Fukuda, J. Hasegawa, M. Ishida, T. Nakajima, 
 Y. Honda, O. Kitao, H. Nakai, T. Vreven, J. A. Montgomery, Jr., 
 J. E. Peralta, F. Ogliaro, M. Bearpark, J. J. Heyd, E. Brothers, 
 K. N. Kudin, V. N. Staroverov, R. Kobayashi, J. Normand, 
 K. Raghavachari, A. Rendell, J. C. Burant, S. S. Iyengar, J. Tomasi, 
 M. Cossi, N. Rega, J. M. Millam, M. Klene, J. E. Knox, J. B. Cross, 
 V. Bakken, C. Adamo, J. Jaramillo, R. Gomperts, R. E. Stratmann, 
 O. Yazyev, A. J. Austin, R. Cammi, C. Pomelli, J. W. Ochterski, 
 R. L. Martin, K. Morokuma, V. G. Zakrzewski, G. A. Voth, 
 P. Salvador, J. J. Dannenberg, S. Dapprich, A. D. Daniels, 
 O. Farkas, J. B. Foresman, J. V. Ortiz, J. Cioslowski, 
 and D. J. Fox, Gaussian, Inc., Wallingford CT, 2009.
 
 ******************************************
 Gaussian 09:  EM64L-G09RevA.02 11-Jun-2009
                17-Aug-2024 
 ******************************************
 %mem=100MB
 ----------------------------------------------------------------
 #p mp2/6-31++G opt freq symmetry=(follow,pg=Td) pop=full gfinput
 ----------------------------------------------------------------
 1/18=20,19=15,38=1/1,3;
 2/9=110,12=2,17=6,18=5,19=2314885530818462804,40=1/2;
 3/5=1,6=6,7=1010,11=9,16=1,24=10,25=1,30=1,71=1/1,2,3;
 4//1;
 5/5=2,38=5/2;
 8/6=4,10=2/1;
 9/15=2,16=-3/6;
 10/5=1/2;
 6/7=3/1;
 7/12=2/1,2,3,16;
 1/18=20,19=15/3(2);
 2/9=110,15=5,19=2314885530818462804/2;
 99//99;
 2/9=110,15=5,19=2314885530818462804/2;
 3/5=1,6=6,7=1010,11=9,16=1,25=1,30=1,71=1/1,2,3;
 4/5=5,16=3/1;
 5/5=2,38=5/2;
 8/6=4,10=2/1;
 9/15=2,16=-3/6;
 10/5=1/2;
 7/12=2/1,2,3,16;
 1/18=20,19=15/3(-8);
 2/9=110,15=5,19=2314885530818462804/2;
 6/7=3/1;
 99//99;
 Leave Link    1 at Sat Aug 17 14:53:16 2024, MaxMem=   13107200 cpu:       0.1
 (Enter /programs/64bit/g09/g09-gfortran/bin/l101.exe)
 -----------------------------------------------------------
 methane with imposed symmetry and hf/6-31++G basis function
 -----------------------------------------------------------
 Symbolic Z-matrix:
 Charge =  0 Multiplicity = 1
 C1
 H2                   1    d
 H3                   1    d        2    a
 H4                   1    d        2    a        3    t        0
 H5                   1    d        2    a        3    -t       0
       Variables:
  d                     1.09                     
  a                   109.471                    
  t                   120.                       
 
     3 tetrahedral angles replaced.
 NAtoms=      5 NQM=      5 NQMF=      0 NMic=      0 NMicF=      0 NTot=      5.
                    Isotopes and Nuclear Properties:
 (Nuclear quadrupole moments (NQMom) in fm**2, nuclear magnetic moments (NMagM)
  in nuclear magnetons)

  Atom         1           2           3           4           5
 IAtWgt=          12           1           1           1           1
 AtmWgt=  12.0000000   1.0078250   1.0078250   1.0078250   1.0078250
 NucSpn=           0           1           1           1           1
 AtZEff=   0.0000000   0.0000000   0.0000000   0.0000000   0.0000000
 NQMom=    0.0000000   0.0000000   0.0000000   0.0000000   0.0000000
 NMagM=    0.0000000   2.7928460   2.7928460   2.7928460   2.7928460
 Leave Link  101 at Sat Aug 17 14:53:16 2024, MaxMem=   13107200 cpu:       0.1
 (Enter /programs/64bit/g09/g09-gfortran/bin/l103.exe)

 GradGradGradGradGradGradGradGradGradGradGradGradGradGradGradGradGradGrad
 Berny optimization.
 Initialization pass.
                           ----------------------------
                           !    Initial Parameters    !
                           ! (Angstroms and Degrees)  !
 --------------------------                            --------------------------
 ! Name  Definition              Value          Derivative Info.                !
 --------------------------------------------------------------------------------
 ! R1    R(1,2)                  1.09           estimate D2E/DX2                !
 ! R2    R(1,3)                  1.09           estimate D2E/DX2                !
 ! R3    R(1,4)                  1.09           estimate D2E/DX2                !
 ! R4    R(1,5)                  1.09           estimate D2E/DX2                !
 ! A1    A(2,1,3)              109.4712         estimate D2E/DX2                !
 ! A2    A(2,1,4)              109.4712         estimate D2E/DX2                !
 ! A3    A(2,1,5)              109.4712         estimate D2E/DX2                !
 ! A4    A(3,1,4)              109.4712         estimate D2E/DX2                !
 ! A5    A(3,1,5)              109.4712         estimate D2E/DX2                !
 ! A6    A(4,1,5)              109.4712         estimate D2E/DX2                !
 ! D1    D(2,1,4,3)           -120.0            estimate D2E/DX2                !
 ! D2    D(2,1,5,3)            120.0            estimate D2E/DX2                !
 ! D3    D(2,1,5,4)           -120.0            estimate D2E/DX2                !
 ! D4    D(3,1,5,4)            120.0            estimate D2E/DX2                !
 --------------------------------------------------------------------------------
 Trust Radius=3.00D-01 FncErr=1.00D-07 GrdErr=1.00D-07
 Number of steps in this run=  24 maximum allowed number of steps= 100.
 GradGradGradGradGradGradGradGradGradGradGradGradGradGradGradGradGradGrad

 Leave Link  103 at Sat Aug 17 14:53:16 2024, MaxMem=   13107200 cpu:       0.0
 (Enter /programs/64bit/g09/g09-gfortran/bin/l202.exe)
                          Input orientation:                          
 ---------------------------------------------------------------------
 Center     Atomic      Atomic             Coordinates (Angstroms)
 Number     Number       Type             X           Y           Z
 ---------------------------------------------------------------------
      1          6           0        0.000000    0.000000    0.000000
      2          1           0        0.000000    0.000000    1.090000
      3          1           0        1.027662    0.000000   -0.363333
      4          1           0       -0.513831   -0.889981   -0.363333
      5          1           0       -0.513831    0.889981   -0.363333
 ---------------------------------------------------------------------
                    Distance matrix (angstroms):
                    1          2          3          4          5
     1  C    0.000000
     2  H    1.090000   0.000000
     3  H    1.090000   1.779963   0.000000
     4  H    1.090000   1.779963   1.779963   0.000000
     5  H    1.090000   1.779963   1.779963   1.779963   0.000000
 Symm:  InNGrp=TD   InAxis=0.
 Stoichiometry    CH4
 Framework group  TD[O(C),4C3(H)]
 Deg. of freedom     1
 Full point group                 TD      NOp  24
 Largest Abelian subgroup         D2      NOp   4
 Largest concise Abelian subgroup D2      NOp   4
                         Standard orientation:                         
 ---------------------------------------------------------------------
 Center     Atomic      Atomic             Coordinates (Angstroms)
 Number     Number       Type             X           Y           Z
 ---------------------------------------------------------------------
      1          6           0        0.000000    0.000000    0.000000
      2          1           0        0.629312    0.629312    0.629312
      3          1           0       -0.629312   -0.629312    0.629312
      4          1           0       -0.629312    0.629312   -0.629312
      5          1           0        0.629312   -0.629312   -0.629312
 ---------------------------------------------------------------------
 Rotational constants (GHZ):    158.2742720    158.2742720    158.2742720
 Leave Link  202 at Sat Aug 17 14:53:16 2024, MaxMem=   13107200 cpu:       0.0
 (Enter /programs/64bit/g09/g09-gfortran/bin/l301.exe)
 Standard basis: 6-31++G (6D, 7F)
 Ernie: Thresh=  0.10000D-02 Tol=  0.10000D-05 Strict=F.
 AO basis set in the form of general basis input (Overlap normalization):
      1 0
 S   6 1.00       0.000000000000
      0.3047524880D+04  0.1834737132D-02
      0.4573695180D+03  0.1403732281D-01
      0.1039486850D+03  0.6884262226D-01
      0.2921015530D+02  0.2321844432D+00
      0.9286662960D+01  0.4679413484D+00
      0.3163926960D+01  0.3623119853D+00
 SP   3 1.00       0.000000000000
      0.7868272350D+01 -0.1193324198D+00  0.6899906659D-01
      0.1881288540D+01 -0.1608541517D+00  0.3164239610D+00
      0.5442492580D+00  0.1143456438D+01  0.7443082909D+00
 SP   1 1.00       0.000000000000
      0.1687144782D+00  0.1000000000D+01  0.1000000000D+01
 SP   1 1.00       0.000000000000
      0.4380000000D-01  0.1000000000D+01  0.1000000000D+01
 ****
      2 0
 S   3 1.00       0.000000000000
      0.1873113696D+02  0.3349460434D-01
      0.2825394365D+01  0.2347269535D+00
      0.6401216923D+00  0.8137573261D+00
 S   1 1.00       0.000000000000
      0.1612777588D+00  0.1000000000D+01
 S   1 1.00       0.000000000000
      0.3600000000D-01  0.1000000000D+01
 ****
      3 0
 S   3 1.00       0.000000000000
      0.1873113696D+02  0.3349460434D-01
      0.2825394365D+01  0.2347269535D+00
      0.6401216923D+00  0.8137573261D+00
 S   1 1.00       0.000000000000
      0.1612777588D+00  0.1000000000D+01
 S   1 1.00       0.000000000000
      0.3600000000D-01  0.1000000000D+01
 ****
      4 0
 S   3 1.00       0.000000000000
      0.1873113696D+02  0.3349460434D-01
      0.2825394365D+01  0.2347269535D+00
      0.6401216923D+00  0.8137573261D+00
 S   1 1.00       0.000000000000
      0.1612777588D+00  0.1000000000D+01
 S   1 1.00       0.000000000000
      0.3600000000D-01  0.1000000000D+01
 ****
      5 0
 S   3 1.00       0.000000000000
      0.1873113696D+02  0.3349460434D-01
      0.2825394365D+01  0.2347269535D+00
      0.6401216923D+00  0.8137573261D+00
 S   1 1.00       0.000000000000
      0.1612777588D+00  0.1000000000D+01
 S   1 1.00       0.000000000000
      0.3600000000D-01  0.1000000000D+01
 ****

 There are     7 symmetry adapted basis functions of A   symmetry.
 There are     6 symmetry adapted basis functions of B1  symmetry.
 There are     6 symmetry adapted basis functions of B2  symmetry.
 There are     6 symmetry adapted basis functions of B3  symmetry.
 Integral buffers will be    131072 words long.
 Raffenetti 1 integral format.
 Two-electron integral symmetry is turned on.
    25 basis functions,    46 primitive gaussians,    25 cartesian basis functions
     5 alpha electrons        5 beta electrons
       nuclear repulsion energy        13.4353891954 Hartrees.
 IExCor=    0 DFT=F Ex=HF Corr=None ExCW=0 ScaHFX=  1.000000
 ScaDFX=  1.000000  1.000000  1.000000  1.000000 ScalE2=  1.000000  1.000000
 IRadAn=      0 IRanWt=     -1 IRanGd=            0 ICorTp=0
 NAtoms=    5 NActive=    5 NUniq=    2 SFac= 3.00D+00 NAtFMM=   80 NAOKFM=F Big=F
 Leave Link  301 at Sat Aug 17 14:53:16 2024, MaxMem=   13107200 cpu:       0.1
 (Enter /programs/64bit/g09/g09-gfortran/bin/l302.exe)
 NPDir=0 NMtPBC=     1 NCelOv=     1 NCel=       1 NClECP=     1 NCelD=      1
         NCelK=      1 NCelE2=     1 NClLst=     1 CellRange=     0.0.
 One-electron integrals computed using PRISM.
 One-electron integral symmetry used in STVInt
 NBasis=    25 RedAO= T  NBF=     7     6     6     6
 NBsUse=    25 1.00D-06 NBFU=     7     6     6     6
 Leave Link  302 at Sat Aug 17 14:53:17 2024, MaxMem=   13107200 cpu:       0.1
 (Enter /programs/64bit/g09/g09-gfortran/bin/l303.exe)
 DipDrv:  MaxL=1.
 Leave Link  303 at Sat Aug 17 14:53:17 2024, MaxMem=   13107200 cpu:       0.0
 (Enter /programs/64bit/g09/g09-gfortran/bin/l401.exe)
 Harris functional with IExCor=  205 diagonalized for initial guess.
 ExpMin= 3.60D-02 ExpMax= 3.05D+03 ExpMxC= 4.57D+02 IAcc=3 IRadAn=         0 AccDes= 0.00D+00
 HarFok:  IExCor=  205 AccDes= 0.00D+00 IRadAn=         0 IDoV= 1
 ScaDFX=  1.000000  1.000000  1.000000  1.000000
 FoFCou: FMM=F IPFlag=           0 FMFlag=      100000 FMFlg1=           0
         NFxFlg=           0 DoJE=T BraDBF=F KetDBF=T FulRan=T
         Omega=  0.000000  0.000000  1.000000  0.000000  0.000000 ICntrl=     500 IOpCl=  0
         NMat0=    1 NMatS0=    1 NMatT0=    0 NMatD0=    1 NMtDS0=    0 NMtDT0=    0
         I1Cent=           4 NGrid=           0.
 Petite list used in FoFCou.
 Harris En= -40.3664561784881    
 Initial guess orbital symmetries:
       Occupied  (A1) (A1) (T2) (T2) (T2)
       Virtual   (A1) (T2) (T2) (T2) (T2) (T2) (T2) (A1) (T2) (T2)
                 (T2) (A1) (T2) (T2) (T2) (T2) (T2) (T2) (A1) (A1)
 The electronic state of the initial guess is 1-A1.
 Leave Link  401 at Sat Aug 17 14:53:17 2024, MaxMem=   13107200 cpu:       0.3
 (Enter /programs/64bit/g09/g09-gfortran/bin/l502.exe)
 Closed shell SCF:
 Requested convergence on RMS density matrix=1.00D-08 within 128 cycles.
 Requested convergence on MAX density matrix=1.00D-06.
 Requested convergence on             energy=1.00D-06.
 No special actions if energy rises.
 Using DIIS extrapolation, IDIIS=  1040.
 Integral symmetry usage will be decided dynamically.
 Keep R1 ints in memory in canonical form, NReq=873804.
 IEnd=       20815 IEndB=       20815 NGot=    13107200 MDV=    13050673
 LenX=    13050673 LenY=    13049607
 Symmetry not used in FoFDir.
 MinBra= 0 MaxBra= 1 Meth= 1.
 IRaf=       0 NMat=   1 IRICut=       1 DoRegI=T DoRafI=F ISym2E= 0 JSym2E=0.

 Cycle   1  Pass 1  IDiag  1:
 E= -40.0591234013286    
 DIIS: error= 5.81D-02 at cycle   1 NSaved=   1.
 NSaved= 1 IEnMin= 1 EnMin= -40.0591234013286     IErMin= 1 ErrMin= 5.81D-02
 ErrMax= 5.81D-02 EMaxC= 1.00D-01 BMatC= 1.17D-01 BMatP= 1.17D-01
 IDIUse=3 WtCom= 4.19D-01 WtEn= 5.81D-01
 Coeff-Com:  0.100D+01
 Coeff-En:   0.100D+01
 Coeff:      0.100D+01
 Gap=     0.524 Goal=   None    Shift=    0.000
 GapD=    0.524 DampG=2.000 DampE=0.500 DampFc=1.0000 IDamp=-1.
 RMSDP=1.37D-02 MaxDP=1.33D-01              OVMax= 1.47D-01

 Cycle   2  Pass 1  IDiag  1:
 E= -40.1610138987816     Delta-E=       -0.101890497453 Rises=F Damp=F
 DIIS: error= 2.27D-02 at cycle   2 NSaved=   2.
 NSaved= 2 IEnMin= 2 EnMin= -40.1610138987816     IErMin= 2 ErrMin= 2.27D-02
 ErrMax= 2.27D-02 EMaxC= 1.00D-01 BMatC= 1.98D-02 BMatP= 1.17D-01
 IDIUse=3 WtCom= 7.73D-01 WtEn= 2.27D-01
 Coeff-Com:  0.279D+00 0.721D+00
 Coeff-En:   0.000D+00 0.100D+01
 Coeff:      0.216D+00 0.784D+00
 Gap=     0.598 Goal=   None    Shift=    0.000
 RMSDP=4.11D-03 MaxDP=3.77D-02 DE=-1.02D-01 OVMax= 4.10D-02

 Cycle   3  Pass 1  IDiag  1:
 E= -40.1808080410607     Delta-E=       -0.019794142279 Rises=F Damp=F
 DIIS: error= 2.72D-03 at cycle   3 NSaved=   3.
 NSaved= 3 IEnMin= 3 EnMin= -40.1808080410607     IErMin= 3 ErrMin= 2.72D-03
 ErrMax= 2.72D-03 EMaxC= 1.00D-01 BMatC= 2.05D-04 BMatP= 1.98D-02
 IDIUse=3 WtCom= 9.73D-01 WtEn= 2.72D-02
 Coeff-Com: -0.253D-01 0.389D-01 0.986D+00
 Coeff-En:   0.000D+00 0.000D+00 0.100D+01
 Coeff:     -0.246D-01 0.379D-01 0.987D+00
 Gap=     0.588 Goal=   None    Shift=    0.000
 RMSDP=6.22D-04 MaxDP=4.20D-03 DE=-1.98D-02 OVMax= 5.10D-03

 Cycle   4  Pass 1  IDiag  1:
 E= -40.1810591628299     Delta-E=       -0.000251121769 Rises=F Damp=F
 DIIS: error= 2.15D-04 at cycle   4 NSaved=   4.
 NSaved= 4 IEnMin= 4 EnMin= -40.1810591628299     IErMin= 4 ErrMin= 2.15D-04
 ErrMax= 2.15D-04 EMaxC= 1.00D-01 BMatC= 1.36D-06 BMatP= 2.05D-04
 IDIUse=3 WtCom= 9.98D-01 WtEn= 2.15D-03
 Coeff-Com:  0.917D-02-0.236D-01-0.407D+00 0.142D+01
 Coeff-En:   0.000D+00 0.000D+00 0.000D+00 0.100D+01
 Coeff:      0.915D-02-0.235D-01-0.406D+00 0.142D+01
 Gap=     0.588 Goal=   None    Shift=    0.000
 RMSDP=1.87D-04 MaxDP=7.05D-04 DE=-2.51D-04 OVMax= 8.48D-04

 Cycle   5  Pass 1  IDiag  1:
 E= -40.1810627003604     Delta-E=       -0.000003537531 Rises=F Damp=F
 DIIS: error= 1.08D-05 at cycle   5 NSaved=   5.
 NSaved= 5 IEnMin= 5 EnMin= -40.1810627003604     IErMin= 5 ErrMin= 1.08D-05
 ErrMax= 1.08D-05 EMaxC= 1.00D-01 BMatC= 4.20D-09 BMatP= 1.36D-06
 IDIUse=1 WtCom= 1.00D+00 WtEn= 0.00D+00
 Coeff-Com: -0.162D-02 0.425D-02 0.740D-01-0.289D+00 0.121D+01
 Coeff:     -0.162D-02 0.425D-02 0.740D-01-0.289D+00 0.121D+01
 Gap=     0.589 Goal=   None    Shift=    0.000
 RMSDP=1.16D-05 MaxDP=3.90D-05 DE=-3.54D-06 OVMax= 4.61D-05

 Cycle   6  Pass 1  IDiag  1:
 E= -40.1810627104067     Delta-E=       -0.000000010046 Rises=F Damp=F
 DIIS: error= 8.32D-07 at cycle   6 NSaved=   6.
 NSaved= 6 IEnMin= 6 EnMin= -40.1810627104067     IErMin= 6 ErrMin= 8.32D-07
 ErrMax= 8.32D-07 EMaxC= 1.00D-01 BMatC= 2.08D-11 BMatP= 4.20D-09
 IDIUse=1 WtCom= 1.00D+00 WtEn= 0.00D+00
 Coeff-Com:  0.112D-03-0.249D-03-0.475D-02 0.202D-01-0.127D+00 0.111D+01
 Coeff:      0.112D-03-0.249D-03-0.475D-02 0.202D-01-0.127D+00 0.111D+01
 Gap=     0.589 Goal=   None    Shift=    0.000
 RMSDP=8.24D-07 MaxDP=3.54D-06 DE=-1.00D-08 OVMax= 2.53D-06

 Cycle   7  Pass 1  IDiag  1:
 E= -40.1810627104531     Delta-E=       -0.000000000046 Rises=F Damp=F
 DIIS: error= 1.18D-07 at cycle   7 NSaved=   7.
 NSaved= 7 IEnMin= 7 EnMin= -40.1810627104531     IErMin= 7 ErrMin= 1.18D-07
 ErrMax= 1.18D-07 EMaxC= 1.00D-01 BMatC= 3.67D-13 BMatP= 2.08D-11
 IDIUse=1 WtCom= 1.00D+00 WtEn= 0.00D+00
 Coeff-Com:  0.124D-05-0.123D-04-0.111D-03 0.131D-03 0.651D-02-0.204D+00
 Coeff-Com:  0.120D+01
 Coeff:      0.124D-05-0.123D-04-0.111D-03 0.131D-03 0.651D-02-0.204D+00
 Coeff:      0.120D+01
 Gap=     0.589 Goal=   None    Shift=    0.000
 RMSDP=1.50D-07 MaxDP=9.90D-07 DE=-4.64D-11 OVMax= 4.12D-07

 Cycle   8  Pass 1  IDiag  1:
 E= -40.1810627104539     Delta-E=       -0.000000000001 Rises=F Damp=F
 DIIS: error= 3.72D-09 at cycle   8 NSaved=   8.
 NSaved= 8 IEnMin= 8 EnMin= -40.1810627104539     IErMin= 8 ErrMin= 3.72D-09
 ErrMax= 3.72D-09 EMaxC= 1.00D-01 BMatC= 5.15D-16 BMatP= 3.67D-13
 IDIUse=1 WtCom= 1.00D+00 WtEn= 0.00D+00
 Coeff-Com: -0.269D-06 0.250D-05 0.228D-04-0.357D-04-0.124D-02 0.393D-01
 Coeff-Com: -0.238D+00 0.120D+01
 Coeff:     -0.269D-06 0.250D-05 0.228D-04-0.357D-04-0.124D-02 0.393D-01
 Coeff:     -0.238D+00 0.120D+01
 Gap=     0.589 Goal=   None    Shift=    0.000
 RMSDP=3.39D-09 MaxDP=1.45D-08 DE=-8.10D-13 OVMax= 2.03D-08

 SCF Done:  E(RHF) =  -40.1810627105     A.U. after    8 cycles
             Convg  =    0.3394D-08             -V/T =  1.9995
 KE= 4.020316777663D+01 PE=-1.198498763006D+02 EE= 2.603025661812D+01
 Leave Link  502 at Sat Aug 17 14:53:17 2024, MaxMem=   13107200 cpu:       0.1
 (Enter /programs/64bit/g09/g09-gfortran/bin/l801.exe)
 ExpMin= 3.60D-02 ExpMax= 3.05D+03 ExpMxC= 4.57D+02 IAcc=3 IRadAn=         5 AccDes= 0.00D+00
 HarFok:  IExCor=  205 AccDes= 0.00D+00 IRadAn=         5 IDoV=-2
 ScaDFX=  1.000000  1.000000  1.000000  1.000000
 Largest valence mixing into a core orbital is  1.06D-04
 Largest core mixing into a valence orbital is  3.25D-05
 Range of M.O.s used for correlation:     2    25
 NBasis=    25 NAE=     5 NBE=     5 NFC=     1 NFV=     0
 NROrb=     24 NOA=     4 NOB=     4 NVA=    20 NVB=    20
 Leave Link  801 at Sat Aug 17 14:53:18 2024, MaxMem=   13107200 cpu:       0.6
 (Enter /programs/64bit/g09/g09-gfortran/bin/l906.exe)
 Frozen-core derivative calculation, NFC=   1 NFV=   0.
 FulOut=F Deriv=T AODrv=T NAtomX=     5
   MMem=        2332  MDisk=           4 MDiskD=           4
  W3Min=        3125 MinDsk=       58575 NBas6D=          25
 NBas2D=         343    NTT=         325    LW2=     2000000
    MDV=    13089952 MDiskM=        4620 NBas2p=         172
 Fully direct method using O(ONN) memory.
 IMap=   1   2   3   4   5
 JobTyp=1 Pass  1:  I=   2 to   5 NPSUse=  1 ParTrn=F ParDer=F DoDerP=T.
 Spin components of T(2) and E(2):
     alpha-alpha T2 =       0.3259724143D-02 E2=     -0.8235987932D-02
     alpha-beta  T2 =       0.3121513910D-01 E2=     -0.8338051905D-01
     beta-beta   T2 =       0.3259724143D-02 E2=     -0.8235987932D-02
 The integrals were generated   1 times.
 ANorm=    0.1018692587D+01
 E2 =    -0.9985249491D-01 EUMP2 =    -0.40280915205366D+02
 Leave Link  906 at Sat Aug 17 14:53:18 2024, MaxMem=   13107200 cpu:       0.2
 (Enter /programs/64bit/g09/g09-gfortran/bin/l1002.exe)
 Minotr:  Closed shell wavefunction.
          Computing MP2/KS-MP2 derivatives.
          Using Z-Vector for PSCF gradient.
          Skipping F1 and S1 gradient terms here.
          IDoAtm=11111
          Frozen-core window.
          Direct CPHF calculation.
          Differentiating once with respect to electric field.
                with respect to dipole field.
          Differentiating once with respect to nuclear coordinates.
          Using symmetry in CPHF.
          Requested convergence is 1.0D-10 RMS, and 1.0D-09 maximum.
          NewPWx=F KeepS1=T KeepF1=T KeepIn=T MapXYZ=F SortEE=F KeepMc=T.
          MDV=      13107146 using IRadAn=       0.
          Keep R1 ints in memory in canonical form, NReq=854073.
 Symmetry not used in FoFDir.
 MinBra= 0 MaxBra= 1 Meth= 1.
 IRaf=       0 NMat=   1 IRICut=       1 DoRegI=T DoRafI=F ISym2E= 0 JSym2E=0.
          Solving linear equations separately, MaxMat=       0.
          There are     1 degrees of freedom in the 1st order CPHF.  IDoFFX=0.
 LinEq1:  Iter=  0 NonCon=     1 RMS=4.79D-03 Max=1.56D-02
 AX will form     1 AO Fock derivatives at one time.
 LinEq1:  Iter=  1 NonCon=     1 RMS=1.04D-03 Max=3.20D-03
 LinEq1:  Iter=  2 NonCon=     1 RMS=9.99D-05 Max=4.02D-04
 LinEq1:  Iter=  3 NonCon=     1 RMS=3.87D-06 Max=2.20D-05
 LinEq1:  Iter=  4 NonCon=     1 RMS=3.10D-07 Max=1.22D-06
 LinEq1:  Iter=  5 NonCon=     1 RMS=2.13D-08 Max=1.20D-07
 LinEq1:  Iter=  6 NonCon=     1 RMS=1.74D-09 Max=1.01D-08
 LinEq1:  Iter=  7 NonCon=     1 RMS=1.33D-10 Max=7.15D-10
 LinEq1:  Iter=  8 NonCon=     0 RMS=5.36D-12 Max=3.64D-11
 Linear equations converged to 1.000D-10 1.000D-09 after     8 iterations.
 End of Minotr Frequency-dependent properties file   721 does not exist.
 End of Minotr Frequency-dependent properties file   722 does not exist.
 Leave Link 1002 at Sat Aug 17 14:53:18 2024, MaxMem=   13107200 cpu:       0.1
 (Enter /programs/64bit/g09/g09-gfortran/bin/l601.exe)
 Copying SCF densities to generalized density rwf, IOpCl= 0 IROHF=0.

 **********************************************************************

            Population analysis using the SCF density.

 **********************************************************************

 Orbital symmetries:
       Occupied  (A1) (A1) (T2) (T2) (T2)
       Virtual   (A1) (T2) (T2) (T2) (T2) (T2) (T2) (A1) (T2) (T2)
                 (T2) (A1) (T2) (T2) (T2) (T2) (T2) (T2) (A1) (A1)
 The electronic state is 1-A1.
 Alpha  occ. eigenvalues --  -11.20993  -0.94819  -0.54499  -0.54499  -0.54499
 Alpha virt. eigenvalues --    0.04354   0.08188   0.08188   0.08188   0.16975
 Alpha virt. eigenvalues --    0.16975   0.16975   0.21584   0.35823   0.35823
 Alpha virt. eigenvalues --    0.35823   0.48481   0.92044   0.92044   0.92044
 Alpha virt. eigenvalues --    1.27846   1.27846   1.27846   1.35573   1.45376
     Molecular Orbital Coefficients:
                           1         2         3         4         5
                        (A1)--O   (A1)--O   (T2)--O   (T2)--O   (T2)--O
     Eigenvalues --   -11.20993  -0.94819  -0.54499  -0.54499  -0.54499
   1 1   C  1S          0.99617  -0.19710   0.00000   0.00000   0.00000
   2        2S          0.02566   0.37197   0.00000   0.00000   0.00000
   3        2PX         0.00000   0.00000   0.00000   0.43664   0.00000
   4        2PY         0.00000   0.00000   0.43664   0.00000   0.00000
   5        2PZ         0.00000   0.00000   0.00000   0.00000   0.43664
   6        3S         -0.01729   0.40148   0.00000   0.00000   0.00000
   7        3PX         0.00000   0.00000   0.00000   0.22314   0.00000
   8        3PY         0.00000   0.00000   0.22314   0.00000   0.00000
   9        3PZ         0.00000   0.00000   0.00000   0.00000   0.22314
  10        4S          0.00257   0.02224   0.00000   0.00000   0.00000
  11        4PX         0.00000   0.00000   0.00000   0.00712   0.00000
  12        4PY         0.00000   0.00000   0.00712   0.00000   0.00000
  13        4PZ         0.00000   0.00000   0.00000   0.00000   0.00712
  14 2   H  1S         -0.00012   0.13486   0.17437   0.17437   0.17437
  15        2S          0.00332   0.02302   0.13490   0.13490   0.13490
  16        3S         -0.00073  -0.00110   0.01282   0.01282   0.01282
  17 3   H  1S         -0.00012   0.13486  -0.17437  -0.17437   0.17437
  18        2S          0.00332   0.02302  -0.13490  -0.13490   0.13490
  19        3S         -0.00073  -0.00110  -0.01282  -0.01282   0.01282
  20 4   H  1S         -0.00012   0.13486   0.17437  -0.17437  -0.17437
  21        2S          0.00332   0.02302   0.13490  -0.13490  -0.13490
  22        3S         -0.00073  -0.00110   0.01282  -0.01282  -0.01282
  23 5   H  1S         -0.00012   0.13486  -0.17437   0.17437  -0.17437
  24        2S          0.00332   0.02302  -0.13490   0.13490  -0.13490
  25        3S         -0.00073  -0.00110  -0.01282   0.01282  -0.01282
                           6         7         8         9        10
                        (A1)--V   (T2)--V   (T2)--V   (T2)--V   (T2)--V
     Eigenvalues --     0.04354   0.08188   0.08188   0.08188   0.16975
   1 1   C  1S         -0.03554   0.00000   0.00000   0.00000   0.00000
   2        2S          0.09910   0.00000   0.00000   0.00000   0.00000
   3        2PX         0.00000  -0.10356   0.00000   0.00000  -0.04573
   4        2PY         0.00000   0.00000  -0.10356   0.00000   0.00000
   5        2PZ         0.00000   0.00000   0.00000  -0.10356   0.00000
   6        3S          0.18781   0.00000   0.00000   0.00000   0.00000
   7        3PX         0.00000   0.02145   0.00000   0.00000  -0.05978
   8        3PY         0.00000   0.00000   0.02145   0.00000   0.00000
   9        3PZ         0.00000   0.00000   0.00000   0.02145   0.00000
  10        4S          4.36114   0.00000   0.00000   0.00000   0.00000
  11        4PX         0.00000  -1.53317   0.00000   0.00000   3.37590
  12        4PY         0.00000   0.00000  -1.53317   0.00000   0.00000
  13        4PZ         0.00000   0.00000   0.00000  -1.53317   0.00000
  14 2   H  1S          0.00988  -0.01025  -0.01025  -0.01025  -0.03071
  15        2S         -0.16341  -0.09747  -0.09747  -0.09747  -0.34652
  16        3S         -1.29173   2.79378   2.79378   2.79378  -2.89971
  17 3   H  1S          0.00988   0.01025   0.01025  -0.01025   0.03071
  18        2S         -0.16341   0.09747   0.09747  -0.09747   0.34652
  19        3S         -1.29173  -2.79378  -2.79378   2.79378   2.89971
  20 4   H  1S          0.00988   0.01025  -0.01025   0.01025   0.03071
  21        2S         -0.16341   0.09747  -0.09747   0.09747   0.34652
  22        3S         -1.29173  -2.79378   2.79378  -2.79378   2.89971
  23 5   H  1S          0.00988  -0.01025   0.01025   0.01025  -0.03071
  24        2S         -0.16341  -0.09747   0.09747   0.09747  -0.34652
  25        3S         -1.29173   2.79378  -2.79378  -2.79378  -2.89971
                          11        12        13        14        15
                        (T2)--V   (T2)--V   (A1)--V   (T2)--V   (T2)--V
     Eigenvalues --     0.16975   0.16975   0.21584   0.35823   0.35823
   1 1   C  1S          0.00000   0.00000   0.09525   0.00000   0.00000
   2        2S          0.00000   0.00000  -0.10859   0.00000   0.00000
   3        2PX         0.00000   0.00000   0.00000   0.31424   0.00000
   4        2PY        -0.04573   0.00000   0.00000   0.00000   0.00000
   5        2PZ         0.00000  -0.04573   0.00000   0.00000   0.31424
   6        3S          0.00000   0.00000  -0.87952   0.00000   0.00000
   7        3PX         0.00000   0.00000   0.00000   1.60307   0.00000
   8        3PY        -0.05978   0.00000   0.00000   0.00000   0.00000
   9        3PZ         0.00000  -0.05978   0.00000   0.00000   1.60307
  10        4S          0.00000   0.00000   9.03780   0.00000   0.00000
  11        4PX         0.00000   0.00000   0.00000  -1.13389   0.00000
  12        4PY         3.37590   0.00000   0.00000   0.00000   0.00000
  13        4PZ         0.00000   3.37590   0.00000   0.00000  -1.13389
  14 2   H  1S         -0.03071  -0.03071   0.02258  -0.06284  -0.06284
  15        2S         -0.34652  -0.34652  -0.39550  -1.20438  -1.20438
  16        3S         -2.89971  -2.89971  -1.89181   1.51385   1.51385
  17 3   H  1S          0.03071  -0.03071   0.02258   0.06284  -0.06284
  18        2S          0.34652  -0.34652  -0.39550   1.20438  -1.20438
  19        3S          2.89971  -2.89971  -1.89181  -1.51385   1.51385
  20 4   H  1S         -0.03071   0.03071   0.02258   0.06284   0.06284
  21        2S         -0.34652   0.34652  -0.39550   1.20438   1.20438
  22        3S         -2.89971   2.89971  -1.89181  -1.51385  -1.51385
  23 5   H  1S          0.03071   0.03071   0.02258  -0.06284   0.06284
  24        2S          0.34652   0.34652  -0.39550  -1.20438   1.20438
  25        3S          2.89971   2.89971  -1.89181   1.51385  -1.51385
                          16        17        18        19        20
                        (T2)--V   (A1)--V   (T2)--V   (T2)--V   (T2)--V
     Eigenvalues --     0.35823   0.48481   0.92044   0.92044   0.92044
   1 1   C  1S          0.00000  -0.14379   0.00000   0.00000   0.00000
   2        2S          0.00000   0.06878   0.00000   0.00000   0.00000
   3        2PX         0.00000   0.00000   0.00000  -0.92618   0.00000
   4        2PY         0.31424   0.00000   0.00000   0.00000  -0.92618
   5        2PZ         0.00000   0.00000  -0.92618   0.00000   0.00000
   6        3S          0.00000   3.60275   0.00000   0.00000   0.00000
   7        3PX         0.00000   0.00000   0.00000   1.86257   0.00000
   8        3PY         1.60307   0.00000   0.00000   0.00000   1.86257
   9        3PZ         0.00000   0.00000   1.86257   0.00000   0.00000
  10        4S          0.00000   7.55614   0.00000   0.00000   0.00000
  11        4PX         0.00000   0.00000   0.00000  -1.60835   0.00000
  12        4PY        -1.13389   0.00000   0.00000   0.00000  -1.60835
  13        4PZ         0.00000   0.00000  -1.60835   0.00000   0.00000
  14 2   H  1S         -0.06284  -0.05788  -0.28185  -0.28185  -0.28185
  15        2S         -1.20438  -2.16907  -0.07585  -0.07585  -0.07585
  16        3S          1.51385  -1.25309   1.19265   1.19265   1.19265
  17 3   H  1S          0.06284  -0.05788  -0.28185   0.28185   0.28185
  18        2S          1.20438  -2.16907  -0.07585   0.07585   0.07585
  19        3S         -1.51385  -1.25309   1.19265  -1.19265  -1.19265
  20 4   H  1S         -0.06284  -0.05788   0.28185   0.28185  -0.28185
  21        2S         -1.20438  -2.16907   0.07585   0.07585  -0.07585
  22        3S          1.51385  -1.25309  -1.19265  -1.19265   1.19265
  23 5   H  1S          0.06284  -0.05788   0.28185  -0.28185   0.28185
  24        2S          1.20438  -2.16907   0.07585  -0.07585   0.07585
  25        3S         -1.51385  -1.25309  -1.19265   1.19265  -1.19265
                          21        22        23        24        25
                        (T2)--V   (T2)--V   (T2)--V   (A1)--V   (A1)--V
     Eigenvalues --     1.27846   1.27846   1.27846   1.35573   1.45376
   1 1   C  1S          0.00000   0.00000   0.00000  -0.04171   0.09750
   2        2S          0.00000   0.00000   0.00000  -2.44379  -0.09816
   3        2PX         0.77289   0.00000   0.00000   0.00000   0.00000
   4        2PY         0.00000   0.00000   0.77289   0.00000   0.00000
   5        2PZ         0.00000   0.77289   0.00000   0.00000   0.00000
   6        3S          0.00000   0.00000   0.00000   5.75185   0.57963
   7        3PX        -0.92334   0.00000   0.00000   0.00000   0.00000
   8        3PY         0.00000   0.00000  -0.92334   0.00000   0.00000
   9        3PZ         0.00000  -0.92334   0.00000   0.00000   0.00000
  10        4S          0.00000   0.00000   0.00000  -0.68191   4.67168
  11        4PX         0.03916   0.00000   0.00000   0.00000   0.00000
  12        4PY         0.00000   0.00000   0.03916   0.00000   0.00000
  13        4PZ         0.00000   0.03916   0.00000   0.00000   0.00000
  14 2   H  1S         -0.64905  -0.64905  -0.64905  -0.05757   0.77320
  15        2S          1.05574   1.05574   1.05574  -1.27112  -1.20008
  16        3S         -0.38846  -0.38846  -0.38846   0.23569  -0.79351
  17 3   H  1S          0.64905  -0.64905   0.64905  -0.05757   0.77320
  18        2S         -1.05574   1.05574  -1.05574  -1.27112  -1.20008
  19        3S          0.38846  -0.38846   0.38846   0.23569  -0.79351
  20 4   H  1S          0.64905   0.64905  -0.64905  -0.05757   0.77320
  21        2S         -1.05574  -1.05574   1.05574  -1.27112  -1.20008
  22        3S          0.38846   0.38846  -0.38846   0.23569  -0.79351
  23 5   H  1S         -0.64905   0.64905   0.64905  -0.05757   0.77320
  24        2S          1.05574  -1.05574  -1.05574  -1.27112  -1.20008
  25        3S         -0.38846   0.38846   0.38846   0.23569  -0.79351
     Density Matrix:
                           1         2         3         4         5
   1 1   C  1S          2.06241
   2        2S         -0.09552   0.27804
   3        2PX         0.00000   0.00000   0.38131
   4        2PY         0.00000   0.00000   0.00000   0.38131
   5        2PZ         0.00000   0.00000   0.00000   0.00000   0.38131
   6        3S         -0.19272   0.29779   0.00000   0.00000   0.00000
   7        3PX         0.00000   0.00000   0.19487   0.00000   0.00000
   8        3PY         0.00000   0.00000   0.00000   0.19487   0.00000
   9        3PZ         0.00000   0.00000   0.00000   0.00000   0.19487
  10        4S         -0.00365   0.01668   0.00000   0.00000   0.00000
  11        4PX         0.00000   0.00000   0.00621   0.00000   0.00000
  12        4PY         0.00000   0.00000   0.00000   0.00621   0.00000
  13        4PZ         0.00000   0.00000   0.00000   0.00000   0.00621
  14 2   H  1S         -0.05340   0.10032   0.15228   0.15228   0.15228
  15        2S         -0.00247   0.01730   0.11780   0.11780   0.11780
  16        3S         -0.00102  -0.00086   0.01120   0.01120   0.01120
  17 3   H  1S         -0.05340   0.10032  -0.15228  -0.15228   0.15228
  18        2S         -0.00247   0.01730  -0.11780  -0.11780   0.11780
  19        3S         -0.00102  -0.00086  -0.01120  -0.01120   0.01120
  20 4   H  1S         -0.05340   0.10032  -0.15228   0.15228  -0.15228
  21        2S         -0.00247   0.01730  -0.11780   0.11780  -0.11780
  22        3S         -0.00102  -0.00086  -0.01120   0.01120  -0.01120
  23 5   H  1S         -0.05340   0.10032   0.15228  -0.15228  -0.15228
  24        2S         -0.00247   0.01730   0.11780  -0.11780  -0.11780
  25        3S         -0.00102  -0.00086   0.01120  -0.01120  -0.01120
                           6         7         8         9        10
   6        3S          0.32298
   7        3PX         0.00000   0.09959
   8        3PY         0.00000   0.00000   0.09959
   9        3PZ         0.00000   0.00000   0.00000   0.09959
  10        4S          0.01777   0.00000   0.00000   0.00000   0.00100
  11        4PX         0.00000   0.00318   0.00000   0.00000   0.00000
  12        4PY         0.00000   0.00000   0.00318   0.00000   0.00000
  13        4PZ         0.00000   0.00000   0.00000   0.00318   0.00000
  14 2   H  1S          0.10830   0.07782   0.07782   0.07782   0.00600
  15        2S          0.01837   0.06020   0.06020   0.06020   0.00104
  16        3S         -0.00086   0.00572   0.00572   0.00572  -0.00005
  17 3   H  1S          0.10830  -0.07782  -0.07782   0.07782   0.00600
  18        2S          0.01837  -0.06020  -0.06020   0.06020   0.00104
  19        3S         -0.00086  -0.00572  -0.00572   0.00572  -0.00005
  20 4   H  1S          0.10830  -0.07782   0.07782  -0.07782   0.00600
  21        2S          0.01837  -0.06020   0.06020  -0.06020   0.00104
  22        3S         -0.00086  -0.00572   0.00572  -0.00572  -0.00005
  23 5   H  1S          0.10830   0.07782  -0.07782  -0.07782   0.00600
  24        2S          0.01837   0.06020  -0.06020  -0.06020   0.00104
  25        3S         -0.00086   0.00572  -0.00572  -0.00572  -0.00005
                          11        12        13        14        15
  11        4PX         0.00010
  12        4PY         0.00000   0.00010
  13        4PZ         0.00000   0.00000   0.00010
  14 2   H  1S          0.00248   0.00248   0.00248   0.21881
  15        2S          0.00192   0.00192   0.00192   0.14734   0.11027
  16        3S          0.00018   0.00018   0.00018   0.01312   0.01032
  17 3   H  1S         -0.00248  -0.00248   0.00248  -0.02444  -0.04084
  18        2S         -0.00192  -0.00192   0.00192  -0.04084  -0.03531
  19        3S         -0.00018  -0.00018   0.00018  -0.00477  -0.00351
  20 4   H  1S         -0.00248   0.00248  -0.00248  -0.02444  -0.04084
  21        2S         -0.00192   0.00192  -0.00192  -0.04084  -0.03531
  22        3S         -0.00018   0.00018  -0.00018  -0.00477  -0.00351
  23 5   H  1S          0.00248  -0.00248  -0.00248  -0.02444  -0.04084
  24        2S          0.00192  -0.00192  -0.00192  -0.04084  -0.03531
  25        3S          0.00018  -0.00018  -0.00018  -0.00477  -0.00351
                          16        17        18        19        20
  16        3S          0.00099
  17 3   H  1S         -0.00477   0.21881
  18        2S         -0.00351   0.14734   0.11027
  19        3S         -0.00033   0.01312   0.01032   0.00099
  20 4   H  1S         -0.00477  -0.02444  -0.04084  -0.00477   0.21881
  21        2S         -0.00351  -0.04084  -0.03531  -0.00351   0.14734
  22        3S         -0.00033  -0.00477  -0.00351  -0.00033   0.01312
  23 5   H  1S         -0.00477  -0.02444  -0.04084  -0.00477  -0.02444
  24        2S         -0.00351  -0.04084  -0.03531  -0.00351  -0.04084
  25        3S         -0.00033  -0.00477  -0.00351  -0.00033  -0.00477
                          21        22        23        24        25
  21        2S          0.11027
  22        3S          0.01032   0.00099
  23 5   H  1S         -0.04084  -0.00477   0.21881
  24        2S         -0.03531  -0.00351   0.14734   0.11027
  25        3S         -0.00351  -0.00033   0.01312   0.01032   0.00099
    Full Mulliken population analysis:
                           1         2         3         4         5
   1 1   C  1S          2.06241
   2        2S         -0.02092   0.27804
   3        2PX         0.00000   0.00000   0.38131
   4        2PY         0.00000   0.00000   0.00000   0.38131
   5        2PZ         0.00000   0.00000   0.00000   0.00000   0.38131
   6        3S         -0.03551   0.24189   0.00000   0.00000   0.00000
   7        3PX         0.00000   0.00000   0.11103   0.00000   0.00000
   8        3PY         0.00000   0.00000   0.00000   0.11103   0.00000
   9        3PZ         0.00000   0.00000   0.00000   0.00000   0.11103
  10        4S         -0.00025   0.00670   0.00000   0.00000   0.00000
  11        4PX         0.00000   0.00000   0.00102   0.00000   0.00000
  12        4PY         0.00000   0.00000   0.00000   0.00102   0.00000
  13        4PZ         0.00000   0.00000   0.00000   0.00000   0.00102
  14 2   H  1S         -0.00175   0.02746   0.03247   0.03247   0.03247
  15        2S         -0.00023   0.00824   0.01807   0.01807   0.01807
  16        3S         -0.00005  -0.00026   0.00029   0.00029   0.00029
  17 3   H  1S         -0.00175   0.02746   0.03247   0.03247   0.03247
  18        2S         -0.00023   0.00824   0.01807   0.01807   0.01807
  19        3S         -0.00005  -0.00026   0.00029   0.00029   0.00029
  20 4   H  1S         -0.00175   0.02746   0.03247   0.03247   0.03247
  21        2S         -0.00023   0.00824   0.01807   0.01807   0.01807
  22        3S         -0.00005  -0.00026   0.00029   0.00029   0.00029
  23 5   H  1S         -0.00175   0.02746   0.03247   0.03247   0.03247
  24        2S         -0.00023   0.00824   0.01807   0.01807   0.01807
  25        3S         -0.00005  -0.00026   0.00029   0.00029   0.00029
                           6         7         8         9        10
   6        3S          0.32298
   7        3PX         0.00000   0.09959
   8        3PY         0.00000   0.00000   0.09959
   9        3PZ         0.00000   0.00000   0.00000   0.09959
  10        4S          0.01293   0.00000   0.00000   0.00000   0.00100
  11        4PX         0.00000   0.00187   0.00000   0.00000   0.00000
  12        4PY         0.00000   0.00000   0.00187   0.00000   0.00000
  13        4PZ         0.00000   0.00000   0.00000   0.00187   0.00000
  14 2   H  1S          0.04083   0.02314   0.02314   0.02314   0.00155
  15        2S          0.01294   0.02025   0.02025   0.02025   0.00067
  16        3S         -0.00050   0.00058   0.00058   0.00058  -0.00005
  17 3   H  1S          0.04083   0.02314   0.02314   0.02314   0.00155
  18        2S          0.01294   0.02025   0.02025   0.02025   0.00067
  19        3S         -0.00050   0.00058   0.00058   0.00058  -0.00005
  20 4   H  1S          0.04083   0.02314   0.02314   0.02314   0.00155
  21        2S          0.01294   0.02025   0.02025   0.02025   0.00067
  22        3S         -0.00050   0.00058   0.00058   0.00058  -0.00005
  23 5   H  1S          0.04083   0.02314   0.02314   0.02314   0.00155
  24        2S          0.01294   0.02025   0.02025   0.02025   0.00067
  25        3S         -0.00050   0.00058   0.00058   0.00058  -0.00005
                          11        12        13        14        15
  11        4PX         0.00010
  12        4PY         0.00000   0.00010
  13        4PZ         0.00000   0.00000   0.00010
  14 2   H  1S          0.00030   0.00030   0.00030   0.21881
  15        2S          0.00048   0.00048   0.00048   0.09700   0.11027
  16        3S          0.00004   0.00004   0.00004   0.00355   0.00701
  17 3   H  1S          0.00030   0.00030   0.00030  -0.00045  -0.00609
  18        2S          0.00048   0.00048   0.00048  -0.00609  -0.01418
  19        3S          0.00004   0.00004   0.00004  -0.00088  -0.00171
  20 4   H  1S          0.00030   0.00030   0.00030  -0.00045  -0.00609
  21        2S          0.00048   0.00048   0.00048  -0.00609  -0.01418
  22        3S          0.00004   0.00004   0.00004  -0.00088  -0.00171
  23 5   H  1S          0.00030   0.00030   0.00030  -0.00045  -0.00609
  24        2S          0.00048   0.00048   0.00048  -0.00609  -0.01418
  25        3S          0.00004   0.00004   0.00004  -0.00088  -0.00171
                          16        17        18        19        20
  16        3S          0.00099
  17 3   H  1S         -0.00088   0.21881
  18        2S         -0.00171   0.09700   0.11027
  19        3S         -0.00027   0.00355   0.00701   0.00099
  20 4   H  1S         -0.00088  -0.00045  -0.00609  -0.00088   0.21881
  21        2S         -0.00171  -0.00609  -0.01418  -0.00171   0.09700
  22        3S         -0.00027  -0.00088  -0.00171  -0.00027   0.00355
  23 5   H  1S         -0.00088  -0.00045  -0.00609  -0.00088  -0.00045
  24        2S         -0.00171  -0.00609  -0.01418  -0.00171  -0.00609
  25        3S         -0.00027  -0.00088  -0.00171  -0.00027  -0.00088
                          21        22        23        24        25
  21        2S          0.11027
  22        3S          0.00701   0.00099
  23 5   H  1S         -0.00609  -0.00088   0.21881
  24        2S         -0.01418  -0.00171   0.09700   0.11027
  25        3S         -0.00171  -0.00027   0.00355   0.00701   0.00099
     Gross orbital populations:
                           1
   1 1   C  1S          1.99761
   2        2S          0.64743
   3        2PX         0.69671
   4        2PY         0.69671
   5        2PZ         0.69671
   6        3S          0.75537
   7        3PX         0.38835
   8        3PY         0.38835
   9        3PZ         0.38835
  10        4S          0.02907
  11        4PX         0.00627
  12        4PY         0.00627
  13        4PZ         0.00627
  14 2   H  1S          0.53293
  15        2S          0.28636
  16        3S          0.00483
  17 3   H  1S          0.53293
  18        2S          0.28636
  19        3S          0.00483
  20 4   H  1S          0.53293
  21        2S          0.28636
  22        3S          0.00483
  23 5   H  1S          0.53293
  24        2S          0.28636
  25        3S          0.00483
          Condensed to atoms (all electrons):
              1          2          3          4          5
     1  C    5.200613   0.375717   0.375717   0.375717   0.375717
     2  H    0.375717   0.545166  -0.032251  -0.032251  -0.032251
     3  H    0.375717  -0.032251   0.545166  -0.032251  -0.032251
     4  H    0.375717  -0.032251  -0.032251   0.545166  -0.032251
     5  H    0.375717  -0.032251  -0.032251  -0.032251   0.545166
 Mulliken atomic charges:
              1
     1  C   -0.703480
     2  H    0.175870
     3  H    0.175870
     4  H    0.175870
     5  H    0.175870
 Sum of Mulliken atomic charges =  -0.00000
 Mulliken charges with hydrogens summed into heavy atoms:
              1
     1  C   -0.000000
 Sum of Mulliken charges with hydrogens summed into heavy atoms =  -0.00000
 Electronic spatial extent (au):  <R**2>=             36.0726
 Charge=             -0.0000 electrons
 Dipole moment (field-independent basis, Debye):
    X=             -0.0000    Y=             -0.0000    Z=             -0.0000  Tot=              0.0000
 Quadrupole moment (field-independent basis, Debye-Ang):
   XX=             -8.5640   YY=             -8.5640   ZZ=             -8.5640
   XY=             -0.0000   XZ=             -0.0000   YZ=             -0.0000
 Traceless Quadrupole moment (field-independent basis, Debye-Ang):
   XX=             -0.0000   YY=             -0.0000   ZZ=              0.0000
   XY=             -0.0000   XZ=             -0.0000   YZ=             -0.0000
 Octapole moment (field-independent basis, Debye-Ang**2):
  XXX=             -0.0000  YYY=             -0.0000  ZZZ=             -0.0000  XYY=              0.0000
  XXY=              0.0000  XXZ=              0.0000  XZZ=             -0.0000  YZZ=             -0.0000
  YYZ=             -0.0000  XYZ=              0.6416
 Hexadecapole moment (field-independent basis, Debye-Ang**3):
 XXXX=            -16.8325 YYYY=            -16.8325 ZZZZ=            -16.8325 XXXY=              0.0000
 XXXZ=             -0.0000 YYYX=             -0.0000 YYYZ=             -0.0000 ZZZX=             -0.0000
 ZZZY=             -0.0000 XXYY=             -5.2009 XXZZ=             -5.2009 YYZZ=             -5.2009
 XXYZ=             -0.0000 YYXZ=             -0.0000 ZZXY=             -0.0000
 N-N= 1.343538919541D+01 E-N=-1.198498763238D+02  KE= 4.020316777663D+01
 Symmetry A    KE= 3.453051967455D+01
 Symmetry B1   KE= 1.890882700693D+00
 Symmetry B2   KE= 1.890882700693D+00
 Symmetry B3   KE= 1.890882700693D+00
 Orbital energies and kinetic energies (alpha):
                                 1                 2
   1         (A1)--O         -11.209925         16.017967
   2         (A1)--O          -0.948193          1.247293
   3         (T2)--O          -0.544993          0.945441
   4         (T2)--O          -0.544993          0.945441
   5         (T2)--O          -0.544993          0.945441
   6         (A1)--V           0.043536          0.093813
   7         (T2)--V           0.081877          0.113083
   8         (T2)--V           0.081877          0.113083
   9         (T2)--V           0.081877          0.113083
  10         (T2)--V           0.169751          0.212609
  11         (T2)--V           0.169751          0.212609
  12         (T2)--V           0.169751          0.212609
  13         (A1)--V           0.215840          0.462422
  14         (T2)--V           0.358229          0.793292
  15         (T2)--V           0.358229          0.793292
  16         (T2)--V           0.358229          0.793292
  17         (A1)--V           0.484808          1.045885
  18         (T2)--V           0.920438          1.916673
  19         (T2)--V           0.920438          1.916673
  20         (T2)--V           0.920438          1.916673
  21         (T2)--V           1.278464          2.757547
  22         (T2)--V           1.278464          2.757547
  23         (T2)--V           1.278464          2.757547
  24         (A1)--V           1.355725          2.343862
  25         (A1)--V           1.453757          2.701510
 Total kinetic energy from orbitals= 4.020316777663D+01
 No NMR shielding tensors so no spin-rotation constants.
 Leave Link  601 at Sat Aug 17 14:53:18 2024, MaxMem=   13107200 cpu:       0.1
 (Enter /programs/64bit/g09/g09-gfortran/bin/l701.exe)
 Compute integral first derivatives.
 ... and contract with generalized density number  2.
 Leave Link  701 at Sat Aug 17 14:53:18 2024, MaxMem=   13107200 cpu:       0.1
 (Enter /programs/64bit/g09/g09-gfortran/bin/l702.exe)
 L702 exits ... SP integral derivatives will be done elsewhere.
 Leave Link  702 at Sat Aug 17 14:53:18 2024, MaxMem=   13107200 cpu:       0.0
 (Enter /programs/64bit/g09/g09-gfortran/bin/l703.exe)
 Compute integral first derivatives, UseDBF=F ICtDFT=           0.
 Integral derivatives from FoFDir, PRISM(SPDF).
 Calling FoFJK, ICntrl=      2127 FMM=F ISym2X=1 I1Cent= 0 IOpClX= 0 NMat=1 NMatS=1 NMatT=0.
 FoFCou: FMM=F IPFlag=           0 FMFlag=      100000 FMFlg1=         800
         NFxFlg=           0 DoJE=F BraDBF=F KetDBF=F FulRan=T
         Omega=  0.000000  0.000000  1.000000  0.000000  0.000000 ICntrl=    2127 IOpCl=  0
         NMat0=    1 NMatS0=    1 NMatT0=    0 NMatD0=    1 NMtDS0=    0 NMtDT0=    0
         I1Cent=           0 NGrid=           0.
 Petite list used in FoFCou.
 Leave Link  703 at Sat Aug 17 14:53:18 2024, MaxMem=   13107200 cpu:       0.1
 (Enter /programs/64bit/g09/g09-gfortran/bin/l716.exe)
 Dipole        = 0.00000000D+00-6.66133815D-16-2.22044605D-16
 ***** Axes restored to original set *****
 -------------------------------------------------------------------
 Center     Atomic                   Forces (Hartrees/Bohr)
 Number     Number              X              Y              Z
 -------------------------------------------------------------------
      1        6           0.000000000   -0.000000000   -0.000000000
      2        1          -0.000000000   -0.000000000    0.004088452
      3        1           0.003854629    0.000000000   -0.001362817
      4        1          -0.001927315   -0.003338207   -0.001362817
      5        1          -0.001927315    0.003338207   -0.001362817
 -------------------------------------------------------------------
 Cartesian Forces:  Max     0.004088452 RMS     0.002111267
 Leave Link  716 at Sat Aug 17 14:53:18 2024, MaxMem=   13107200 cpu:       0.0
 (Enter /programs/64bit/g09/g09-gfortran/bin/l103.exe)

 GradGradGradGradGradGradGradGradGradGradGradGradGradGradGradGradGradGrad
 Berny optimization.
 Internal  Forces:  Max     0.004088452 RMS     0.002185369
 Search for a local minimum.
 Step number   1 out of a maximum of   24
 All quantities printed in internal units (Hartrees-Bohrs-Radians)
 RMS Force = .21854D-02 SwitMx=.10000D-02 MixMth= 1
 Mixed Optimization -- RFO/linear search
 Second derivative matrix not updated -- first step.
 The second derivative matrix:
                          R1        R2        R3        R4        A1
           R1           0.34813
           R2           0.00000   0.34813
           R3           0.00000   0.00000   0.34813
           R4           0.00000   0.00000   0.00000   0.34813
           A1           0.00000   0.00000   0.00000   0.00000   0.16000
           A2           0.00000   0.00000   0.00000   0.00000   0.00000
           A3           0.00000   0.00000   0.00000   0.00000   0.00000
           A4           0.00000   0.00000   0.00000   0.00000   0.00000
           A5           0.00000   0.00000   0.00000   0.00000   0.00000
           A6           0.00000   0.00000   0.00000   0.00000   0.00000
           D1           0.00000   0.00000   0.00000   0.00000   0.00000
           D2           0.00000   0.00000   0.00000   0.00000   0.00000
           D3           0.00000   0.00000   0.00000   0.00000   0.00000
           D4           0.00000   0.00000   0.00000   0.00000   0.00000
                          A2        A3        A4        A5        A6
           A2           0.16000
           A3           0.00000   0.16000
           A4           0.00000   0.00000   0.16000
           A5           0.00000   0.00000   0.00000   0.16000
           A6           0.00000   0.00000   0.00000   0.00000   0.16000
           D1           0.00000   0.00000   0.00000   0.00000   0.00000
           D2           0.00000   0.00000   0.00000   0.00000   0.00000
           D3           0.00000   0.00000   0.00000   0.00000   0.00000
           D4           0.00000   0.00000   0.00000   0.00000   0.00000
                          D1        D2        D3        D4
           D1           0.00235
           D2           0.00000   0.00235
           D3           0.00000   0.00000   0.00235
           D4           0.00000   0.00000   0.00000   0.00235
     Eigenvalues ---    0.05086   0.05718   0.08643   0.16000   0.16000
     Eigenvalues ---    0.34813   0.34813   0.34813   0.348131000.00000
     Eigenvalues --- 1000.000001000.000001000.000001000.00000
 RFO step:  Lambda=-1.91955808D-04 EMin= 5.08565158D-02
 Linear search not attempted -- first point.
 Iteration  1 RMS(Cart)=  0.00627406 RMS(Int)=  0.00000000
 Iteration  2 RMS(Cart)=  0.00000000 RMS(Int)=  0.00000000
 ClnCor:  largest displacement from symmetrization is 5.56D-14 for atom     2.
 Variable       Old X    -DE/DX   Delta X   Delta X   Delta X     New X
                                 (Linear)    (Quad)   (Total)
    R1        2.05980   0.00409   0.00000   0.01174   0.01174   2.07154
    R2        2.05980   0.00409   0.00000   0.01174   0.01174   2.07154
    R3        2.05980   0.00409   0.00000   0.01174   0.01174   2.07154
    R4        2.05980   0.00409   0.00000   0.01174   0.01174   2.07154
    A1        1.91063   0.00000   0.00000   0.00000   0.00000   1.91063
    A2        1.91063  -0.00000   0.00000  -0.00000  -0.00000   1.91063
    A3        1.91063  -0.00000   0.00000  -0.00000   0.00000   1.91063
    A4        1.91063  -0.00000   0.00000  -0.00000   0.00000   1.91063
    A5        1.91063  -0.00000   0.00000  -0.00000   0.00000   1.91063
    A6        1.91063   0.00000   0.00000   0.00000   0.00000   1.91063
    D1       -2.09440  -0.00000   0.00000  -0.00000   0.00000  -2.09440
    D2        2.09440   0.00000   0.00000   0.00000   0.00000   2.09440
    D3       -2.09440   0.00000   0.00000   0.00000   0.00000  -2.09440
    D4        2.09440  -0.00000   0.00000  -0.00000   0.00000   2.09440
         Item               Value     Threshold  Converged?
 Maximum Force            0.004088     0.000450     NO 
 RMS     Force            0.002185     0.000300     NO 
 Maximum Displacement     0.011738     0.001800     NO 
 RMS     Displacement     0.006274     0.001200     NO 
 Predicted change in Energy=-9.603083D-05
 GradGradGradGradGradGradGradGradGradGradGradGradGradGradGradGradGradGrad

 Leave Link  103 at Sat Aug 17 14:53:18 2024, MaxMem=   13107200 cpu:       0.0
 (Enter /programs/64bit/g09/g09-gfortran/bin/l202.exe)
                          Input orientation:                          
 ---------------------------------------------------------------------
 Center     Atomic      Atomic             Coordinates (Angstroms)
 Number     Number       Type             X           Y           Z
 ---------------------------------------------------------------------
      1          6           0        0.000000    0.000000   -0.000000
      2          1           0        0.000000    0.000000    1.096211
      3          1           0        1.033518   -0.000000   -0.365404
      4          1           0       -0.516759   -0.895053   -0.365404
      5          1           0       -0.516759    0.895053   -0.365404
 ---------------------------------------------------------------------
                    Distance matrix (angstroms):
                    1          2          3          4          5
     1  C    0.000000
     2  H    1.096211   0.000000
     3  H    1.096211   1.790106   0.000000
     4  H    1.096211   1.790106   1.790106   0.000000
     5  H    1.096211   1.790106   1.790106   1.790106   0.000000
 Stoichiometry    CH4
 Framework group  TD[O(C),4C3(H)]
 Deg. of freedom     1
 Prev. full point group           TD      NOp  24
 Prev. largest Abelian subgroup   D2      NOp   4
       concise Abelian subgroup   D2      NOp   4
                   Standard orientation:
 ---------------------------------------------------------------------
 Center     Atomic                     Coordinates (Angstroms)
 Number     Number                        X           Y           Z
 ---------------------------------------------------------------------
      1          6                    0.000000    0.000000    0.000000
      2          1                    0.390570    0.669548    0.775138
      3          1                   -0.498423   -0.854439    0.472428
      4          1                   -0.719201    0.543436   -0.623783
      5          1                    0.827054   -0.358546   -0.623783
 ---------------------------------------------------------------------
 TstSym:  Max error for IOp=  3 IAt=    3 Err= 9.37D-01
 TstSym:  IOp= 25 I=    6 IP=    4 Err= 9.37D-01
  CI=  0.000000000000D+00  0.000000000000D+00  0.000000000000D+00
   T=  9.418823693119D-01 -1.614655490249D+00 -8.927596493476D-01
 CIP= -1.359093452896D+00  1.026946135140D+00 -1.178779522697D+00
 Unable to use previous symmetry information.  Redetermining point group.
 No symmetry information on checkpoint file.  Reassigning symmetry.
 Symm:  InNGrp=TD   InAxis=0.
 Stoichiometry    CH4
 Framework group  TD[O(C),4C3(H)]
 Deg. of freedom     1
 Full point group                 TD      NOp  24
 Largest Abelian subgroup         D2      NOp   4
 Largest concise Abelian subgroup D2      NOp   4
                         Standard orientation:                         
 ---------------------------------------------------------------------
 Center     Atomic      Atomic             Coordinates (Angstroms)
 Number     Number       Type             X           Y           Z
 ---------------------------------------------------------------------
      1          6           0        0.000000    0.000000    0.000000
      2          1           0        0.632898    0.632898    0.632898
      3          1           0       -0.632898   -0.632898    0.632898
      4          1           0       -0.632898    0.632898   -0.632898
      5          1           0        0.632898   -0.632898   -0.632898
 ---------------------------------------------------------------------
 Rotational constants (GHZ):    156.4857365    156.4857365    156.4857365
 Leave Link  202 at Sat Aug 17 14:53:18 2024, MaxMem=   13107200 cpu:       0.0
 (Enter /programs/64bit/g09/g09-gfortran/bin/l301.exe)
 Standard basis: 6-31++G (6D, 7F)
 Ernie: Thresh=  0.10000D-02 Tol=  0.10000D-05 Strict=F.
 There are     7 symmetry adapted basis functions of A   symmetry.
 There are     6 symmetry adapted basis functions of B1  symmetry.
 There are     6 symmetry adapted basis functions of B2  symmetry.
 There are     6 symmetry adapted basis functions of B3  symmetry.
 Integral buffers will be    131072 words long.
 Raffenetti 1 integral format.
 Two-electron integral symmetry is turned on.
    25 basis functions,    46 primitive gaussians,    25 cartesian basis functions
     5 alpha electrons        5 beta electrons
       nuclear repulsion energy        13.3592620345 Hartrees.
 IExCor=    0 DFT=F Ex=HF Corr=None ExCW=0 ScaHFX=  1.000000
 ScaDFX=  1.000000  1.000000  1.000000  1.000000 ScalE2=  1.000000  1.000000
 IRadAn=      0 IRanWt=     -1 IRanGd=            0 ICorTp=0
 NAtoms=    5 NActive=    5 NUniq=    2 SFac= 3.00D+00 NAtFMM=   80 NAOKFM=F Big=F
 Leave Link  301 at Sat Aug 17 14:53:18 2024, MaxMem=   13107200 cpu:       0.1
 (Enter /programs/64bit/g09/g09-gfortran/bin/l302.exe)
 NPDir=0 NMtPBC=     1 NCelOv=     1 NCel=       1 NClECP=     1 NCelD=      1
         NCelK=      1 NCelE2=     1 NClLst=     1 CellRange=     0.0.
 One-electron integrals computed using PRISM.
 One-electron integral symmetry used in STVInt
 NBasis=    25 RedAO= T  NBF=     7     6     6     6
 NBsUse=    25 1.00D-06 NBFU=     7     6     6     6
 Leave Link  302 at Sat Aug 17 14:53:19 2024, MaxMem=   13107200 cpu:       0.1
 (Enter /programs/64bit/g09/g09-gfortran/bin/l303.exe)
 DipDrv:  MaxL=1.
 Leave Link  303 at Sat Aug 17 14:53:19 2024, MaxMem=   13107200 cpu:       0.0
 (Enter /programs/64bit/g09/g09-gfortran/bin/l401.exe)
 Initial guess read from the read-write file.
 B after Tr=     0.000000    0.000000    0.000000
         Rot=    1.000000    0.000000    0.000000    0.000000 Ang=   0.00 deg.
 Guess basis will be translated and rotated to current coordinates.
 Initial guess orbital symmetries:
       Occupied  (A1) (A1) (T2) (T2) (T2)
       Virtual   (A1) (T2) (T2) (T2) (T2) (T2) (T2) (A1) (T2) (T2)
                 (T2) (A1) (T2) (T2) (T2) (T2) (T2) (T2) (A1) (A1)
 The electronic state of the initial guess is 1-A1.
 Leave Link  401 at Sat Aug 17 14:53:19 2024, MaxMem=   13107200 cpu:       0.1
 (Enter /programs/64bit/g09/g09-gfortran/bin/l502.exe)
 Closed shell SCF:
 Requested convergence on RMS density matrix=1.00D-08 within 128 cycles.
 Requested convergence on MAX density matrix=1.00D-06.
 Requested convergence on             energy=1.00D-06.
 No special actions if energy rises.
 Using DIIS extrapolation, IDIIS=  1040.
 Integral symmetry usage will be decided dynamically.
 Keep R1 ints in memory in canonical form, NReq=873804.
 IEnd=       20815 IEndB=       20815 NGot=    13107200 MDV=    13050673
 LenX=    13050673 LenY=    13049607
 Symmetry not used in FoFDir.
 MinBra= 0 MaxBra= 1 Meth= 1.
 IRaf=       0 NMat=   1 IRICut=       1 DoRegI=T DoRafI=F ISym2E= 0 JSym2E=0.

 Cycle   1  Pass 1  IDiag  1:
 E= -40.1806801858488    
 DIIS: error= 9.96D-04 at cycle   1 NSaved=   1.
 NSaved= 1 IEnMin= 1 EnMin= -40.1806801858488     IErMin= 1 ErrMin= 9.96D-04
 ErrMax= 9.96D-04 EMaxC= 1.00D-01 BMatC= 2.15D-05 BMatP= 2.15D-05
 IDIUse=3 WtCom= 9.90D-01 WtEn= 9.96D-03
 Coeff-Com:  0.100D+01
 Coeff-En:   0.100D+01
 Coeff:      0.100D+01
 Gap=     0.585 Goal=   None    Shift=    0.000
 RMSDP=2.09D-04 MaxDP=1.42D-03              OVMax= 1.86D-03

 Cycle   2  Pass 1  IDiag  1:
 E= -40.1807035447230     Delta-E=       -0.000023358874 Rises=F Damp=F
 DIIS: error= 3.38D-04 at cycle   2 NSaved=   2.
 NSaved= 2 IEnMin= 2 EnMin= -40.1807035447230     IErMin= 2 ErrMin= 3.38D-04
 ErrMax= 3.38D-04 EMaxC= 1.00D-01 BMatC= 2.89D-06 BMatP= 2.15D-05
 IDIUse=3 WtCom= 9.97D-01 WtEn= 3.38D-03
 Coeff-Com:  0.209D+00 0.791D+00
 Coeff-En:   0.000D+00 0.100D+01
 Coeff:      0.208D+00 0.792D+00
 Gap=     0.587 Goal=   None    Shift=    0.000
 RMSDP=4.86D-05 MaxDP=4.43D-04 DE=-2.34D-05 OVMax= 4.65D-04

 Cycle   3  Pass 1  IDiag  1:
 E= -40.1807063997356     Delta-E=       -0.000002855013 Rises=F Damp=F
 DIIS: error= 5.43D-05 at cycle   3 NSaved=   3.
 NSaved= 3 IEnMin= 3 EnMin= -40.1807063997356     IErMin= 3 ErrMin= 5.43D-05
 ErrMax= 5.43D-05 EMaxC= 1.00D-01 BMatC= 7.25D-08 BMatP= 2.89D-06
 IDIUse=1 WtCom= 1.00D+00 WtEn= 0.00D+00
 Coeff-Com: -0.608D-01-0.993D-02 0.107D+01
 Coeff:     -0.608D-01-0.993D-02 0.107D+01
 Gap=     0.587 Goal=   None    Shift=    0.000
 RMSDP=1.27D-05 MaxDP=1.10D-04 DE=-2.86D-06 OVMax= 1.00D-04

 Cycle   4  Pass 1  IDiag  1:
 E= -40.1807065006130     Delta-E=       -0.000000100877 Rises=F Damp=F
 DIIS: error= 3.96D-06 at cycle   4 NSaved=   4.
 NSaved= 4 IEnMin= 4 EnMin= -40.1807065006130     IErMin= 4 ErrMin= 3.96D-06
 ErrMax= 3.96D-06 EMaxC= 1.00D-01 BMatC= 4.81D-10 BMatP= 7.25D-08
 IDIUse=1 WtCom= 1.00D+00 WtEn= 0.00D+00
 Coeff-Com:  0.132D-01 0.231D-02-0.268D+00 0.125D+01
 Coeff:      0.132D-01 0.231D-02-0.268D+00 0.125D+01
 Gap=     0.587 Goal=   None    Shift=    0.000
 RMSDP=3.95D-06 MaxDP=1.83D-05 DE=-1.01D-07 OVMax= 1.69D-05

 Cycle   5  Pass 1  IDiag  1:
 E= -40.1807065020070     Delta-E=       -0.000000001394 Rises=F Damp=F
 DIIS: error= 5.71D-07 at cycle   5 NSaved=   5.
 NSaved= 5 IEnMin= 5 EnMin= -40.1807065020070     IErMin= 5 ErrMin= 5.71D-07
 ErrMax= 5.71D-07 EMaxC= 1.00D-01 BMatC= 9.11D-12 BMatP= 4.81D-10
 IDIUse=1 WtCom= 1.00D+00 WtEn= 0.00D+00
 Coeff-Com: -0.171D-02-0.100D-03 0.364D-01-0.278D+00 0.124D+01
 Coeff:     -0.171D-02-0.100D-03 0.364D-01-0.278D+00 0.124D+01
 Gap=     0.587 Goal=   None    Shift=    0.000
 RMSDP=6.98D-07 MaxDP=2.49D-06 DE=-1.39D-09 OVMax= 2.80D-06

 Cycle   6  Pass 1  IDiag  1:
 E= -40.1807065020364     Delta-E=       -0.000000000029 Rises=F Damp=F
 DIIS: error= 7.69D-08 at cycle   6 NSaved=   6.
 NSaved= 6 IEnMin= 6 EnMin= -40.1807065020364     IErMin= 6 ErrMin= 7.69D-08
 ErrMax= 7.69D-08 EMaxC= 1.00D-01 BMatC= 8.49D-14 BMatP= 9.11D-12
 IDIUse=1 WtCom= 1.00D+00 WtEn= 0.00D+00
 Coeff-Com:  0.454D-03 0.774D-04-0.986D-02 0.787D-01-0.388D+00 0.132D+01
 Coeff:      0.454D-03 0.774D-04-0.986D-02 0.787D-01-0.388D+00 0.132D+01
 Gap=     0.587 Goal=   None    Shift=    0.000
 RMSDP=5.08D-08 MaxDP=1.93D-07 DE=-2.93D-11 OVMax= 2.01D-07

 Cycle   7  Pass 1  IDiag  1:
 E= -40.1807065020365     Delta-E=       -0.000000000000 Rises=F Damp=F
 DIIS: error= 4.81D-09 at cycle   7 NSaved=   7.
 NSaved= 7 IEnMin= 7 EnMin= -40.1807065020365     IErMin= 7 ErrMin= 4.81D-09
 ErrMax= 4.81D-09 EMaxC= 1.00D-01 BMatC= 3.13D-16 BMatP= 8.49D-14
 IDIUse=1 WtCom= 1.00D+00 WtEn= 0.00D+00
 Coeff-Com: -0.530D-04-0.700D-05 0.114D-02-0.919D-02 0.471D-01-0.196D+00
 Coeff-Com:  0.116D+01
 Coeff:     -0.530D-04-0.700D-05 0.114D-02-0.919D-02 0.471D-01-0.196D+00
 Coeff:      0.116D+01
 Gap=     0.587 Goal=   None    Shift=    0.000
 RMSDP=2.82D-09 MaxDP=2.14D-08 DE=-1.49D-13 OVMax= 1.41D-08

 SCF Done:  E(RHF) =  -40.1807065020     A.U. after    7 cycles
             Convg  =    0.2819D-08             -V/T =  2.0003
 KE= 4.016821273014D+01 PE=-1.196702852443D+02 EE= 2.596210397755D+01
 Leave Link  502 at Sat Aug 17 14:53:19 2024, MaxMem=   13107200 cpu:       0.1
 (Enter /programs/64bit/g09/g09-gfortran/bin/l801.exe)
 ExpMin= 3.60D-02 ExpMax= 3.05D+03 ExpMxC= 4.57D+02 IAcc=3 IRadAn=         5 AccDes= 0.00D+00
 HarFok:  IExCor=  205 AccDes= 0.00D+00 IRadAn=         5 IDoV=-2
 ScaDFX=  1.000000  1.000000  1.000000  1.000000
 Largest valence mixing into a core orbital is  1.07D-04
 Largest core mixing into a valence orbital is  3.27D-05
 Range of M.O.s used for correlation:     2    25
 NBasis=    25 NAE=     5 NBE=     5 NFC=     1 NFV=     0
 NROrb=     24 NOA=     4 NOB=     4 NVA=    20 NVB=    20
 Leave Link  801 at Sat Aug 17 14:53:20 2024, MaxMem=   13107200 cpu:       0.7
 (Enter /programs/64bit/g09/g09-gfortran/bin/l906.exe)
 Frozen-core derivative calculation, NFC=   1 NFV=   0.
 FulOut=F Deriv=T AODrv=T NAtomX=     5
   MMem=        2332  MDisk=           4 MDiskD=           4
  W3Min=        3125 MinDsk=       58575 NBas6D=          25
 NBas2D=         343    NTT=         325    LW2=     2000000
    MDV=    13089952 MDiskM=        4620 NBas2p=         172
 Fully direct method using O(ONN) memory.
 IMap=   1   2   3   4   5
 JobTyp=1 Pass  1:  I=   2 to   5 NPSUse=  1 ParTrn=F ParDer=F DoDerP=T.
 Spin components of T(2) and E(2):
     alpha-alpha T2 =       0.3285533255D-02 E2=     -0.8266822018D-02
     alpha-beta  T2 =       0.3154564395D-01 E2=     -0.8376700399D-01
     beta-beta   T2 =       0.3285533255D-02 E2=     -0.8266822018D-02
 The integrals were generated   1 times.
 ANorm=    0.1018880126D+01
 E2 =    -0.1003006480D+00 EUMP2 =    -0.40281007150062D+02
 Leave Link  906 at Sat Aug 17 14:53:21 2024, MaxMem=   13107200 cpu:       0.2
 (Enter /programs/64bit/g09/g09-gfortran/bin/l1002.exe)
 Minotr:  Closed shell wavefunction.
          Computing MP2/KS-MP2 derivatives.
          Using Z-Vector for PSCF gradient.
          Skipping F1 and S1 gradient terms here.
          IDoAtm=11111
          Frozen-core window.
          Direct CPHF calculation.
          Differentiating once with respect to electric field.
                with respect to dipole field.
          Differentiating once with respect to nuclear coordinates.
          Using symmetry in CPHF.
          Requested convergence is 1.0D-10 RMS, and 1.0D-09 maximum.
          NewPWx=F KeepS1=T KeepF1=T KeepIn=T MapXYZ=F SortEE=F KeepMc=T.
          MDV=      13107146 using IRadAn=       0.
          Keep R1 ints in memory in canonical form, NReq=854073.
 Symmetry not used in FoFDir.
 MinBra= 0 MaxBra= 1 Meth= 1.
 IRaf=       0 NMat=   1 IRICut=       1 DoRegI=T DoRafI=F ISym2E= 0 JSym2E=0.
          Solving linear equations separately, MaxMat=       0.
          There are     1 degrees of freedom in the 1st order CPHF.  IDoFFX=0.
 LinEq1:  Iter=  0 NonCon=     1 RMS=4.83D-03 Max=1.55D-02
 AX will form     1 AO Fock derivatives at one time.
 LinEq1:  Iter=  1 NonCon=     1 RMS=1.09D-03 Max=3.42D-03
 LinEq1:  Iter=  2 NonCon=     1 RMS=1.01D-04 Max=4.13D-04
 LinEq1:  Iter=  3 NonCon=     1 RMS=3.78D-06 Max=2.24D-05
 LinEq1:  Iter=  4 NonCon=     1 RMS=2.88D-07 Max=1.10D-06
 LinEq1:  Iter=  5 NonCon=     1 RMS=2.12D-08 Max=1.15D-07
 LinEq1:  Iter=  6 NonCon=     1 RMS=1.73D-09 Max=1.04D-08
 LinEq1:  Iter=  7 NonCon=     1 RMS=1.35D-10 Max=7.39D-10
 LinEq1:  Iter=  8 NonCon=     0 RMS=5.53D-12 Max=3.85D-11
 Linear equations converged to 1.000D-10 1.000D-09 after     8 iterations.
 End of Minotr Frequency-dependent properties file   721 does not exist.
 End of Minotr Frequency-dependent properties file   722 does not exist.
 Leave Link 1002 at Sat Aug 17 14:53:21 2024, MaxMem=   13107200 cpu:       0.1
 (Enter /programs/64bit/g09/g09-gfortran/bin/l701.exe)
 Compute integral first derivatives.
 ... and contract with generalized density number  2.
 Leave Link  701 at Sat Aug 17 14:53:21 2024, MaxMem=   13107200 cpu:       0.2
 (Enter /programs/64bit/g09/g09-gfortran/bin/l702.exe)
 L702 exits ... SP integral derivatives will be done elsewhere.
 Leave Link  702 at Sat Aug 17 14:53:21 2024, MaxMem=   13107200 cpu:       0.0
 (Enter /programs/64bit/g09/g09-gfortran/bin/l703.exe)
 Compute integral first derivatives, UseDBF=F ICtDFT=           0.
 Integral derivatives from FoFDir, PRISM(SPDF).
 Calling FoFJK, ICntrl=      2127 FMM=F ISym2X=1 I1Cent= 0 IOpClX= 0 NMat=1 NMatS=1 NMatT=0.
 FoFCou: FMM=F IPFlag=           0 FMFlag=      100000 FMFlg1=         800
         NFxFlg=           0 DoJE=F BraDBF=F KetDBF=F FulRan=T
         Omega=  0.000000  0.000000  1.000000  0.000000  0.000000 ICntrl=    2127 IOpCl=  0
         NMat0=    1 NMatS0=    1 NMatT0=    0 NMatD0=    1 NMtDS0=    0 NMtDT0=    0
         I1Cent=           0 NGrid=           0.
 Petite list used in FoFCou.
 Leave Link  703 at Sat Aug 17 14:53:22 2024, MaxMem=   13107200 cpu:       0.1
 (Enter /programs/64bit/g09/g09-gfortran/bin/l716.exe)
 Dipole        =-2.22044605D-16 0.00000000D+00 0.00000000D+00
 ***** Axes restored to original set *****
 -------------------------------------------------------------------
 Center     Atomic                   Forces (Hartrees/Bohr)
 Number     Number              X              Y              Z
 -------------------------------------------------------------------
      1        6           0.000000000   -0.000000000   -0.000000000
      2        1           0.000000000    0.000000000   -0.000147395
      3        1          -0.000138966   -0.000000000    0.000049132
      4        1           0.000069483    0.000120348    0.000049132
      5        1           0.000069483   -0.000120348    0.000049132
 -------------------------------------------------------------------
 Cartesian Forces:  Max     0.000147395 RMS     0.000076115
 Leave Link  716 at Sat Aug 17 14:53:22 2024, MaxMem=   13107200 cpu:       0.0
 (Enter /programs/64bit/g09/g09-gfortran/bin/l103.exe)

 GradGradGradGradGradGradGradGradGradGradGradGradGradGradGradGradGradGrad
 Berny optimization.
 Using GEDIIS/GDIIS optimizer.
 Internal  Forces:  Max     0.000147395 RMS     0.000078786
 Search for a local minimum.
 Step number   2 out of a maximum of   24
 All quantities printed in internal units (Hartrees-Bohrs-Radians)
 RMS Force = .78786D-04 SwitMx=.10000D-02 MixMth= 2
 Mixed Optimization -- En-DIIS/RFO-DIIS
 Update second derivatives using D2CorX and points    1    2
 DE= -9.19D-05 DEPred=-9.60D-05 R= 9.57D-01
 SS=  1.41D+00  RLast= 2.35D-02 DXNew= 5.0454D-01 7.0426D-02
 Trust test= 9.57D-01 RLast= 2.35D-02 DXMaxT set to 3.00D-01
 The second derivative matrix:
                          R1        R2        R3        R4        A1
           R1           0.35131
           R2           0.00319   0.35131
           R3           0.00319   0.00319   0.35131
           R4           0.00319   0.00319   0.00319   0.35131
           A1           0.00000   0.00000   0.00000   0.00000   0.16000
           A2          -0.00000  -0.00000  -0.00000  -0.00000  -0.00000
           A3           0.00000   0.00000   0.00000   0.00000   0.00000
           A4          -0.00000  -0.00000  -0.00000  -0.00000  -0.00000
           A5          -0.00000  -0.00000  -0.00000  -0.00000  -0.00000
           A6           0.00000   0.00000   0.00000   0.00000   0.00000
           D1          -0.00000  -0.00000  -0.00000  -0.00000  -0.00000
           D2           0.00000   0.00000   0.00000   0.00000   0.00000
           D3           0.00000   0.00000   0.00000   0.00000   0.00000
           D4          -0.00000  -0.00000  -0.00000  -0.00000  -0.00000
                          A2        A3        A4        A5        A6
           A2           0.16000
           A3          -0.00000   0.16000
           A4           0.00000  -0.00000   0.16000
           A5           0.00000  -0.00000   0.00000   0.16000
           A6          -0.00000   0.00000  -0.00000  -0.00000   0.16000
           D1           0.00000  -0.00000   0.00000   0.00000  -0.00000
           D2          -0.00000   0.00000  -0.00000  -0.00000   0.00000
           D3          -0.00000   0.00000  -0.00000  -0.00000   0.00000
           D4           0.00000  -0.00000   0.00000   0.00000  -0.00000
                          D1        D2        D3        D4
           D1           0.00235
           D2          -0.00000   0.00235
           D3          -0.00000   0.00000   0.00235
           D4           0.00000  -0.00000  -0.00000   0.00235
 Use linear search instead of GDIIS.
     Eigenvalues ---    0.05086   0.05718   0.08643   0.16000   0.16000
     Eigenvalues ---    0.34813   0.34813   0.34813   0.360881000.00000
     Eigenvalues --- 1000.000001000.000001000.000001000.00000
 RFO step:  Lambda= 0.00000000D+00 EMin= 5.08565158D-02
 Quartic linear search produced a step of -0.03539.
 Iteration  1 RMS(Cart)=  0.00022201 RMS(Int)=  0.00000000
 Iteration  2 RMS(Cart)=  0.00000000 RMS(Int)=  0.00000000
 ClnCor:  largest displacement from symmetrization is 2.87D-14 for atom     5.
 Variable       Old X    -DE/DX   Delta X   Delta X   Delta X     New X
                                 (Linear)    (Quad)   (Total)
    R1        2.07154  -0.00015  -0.00042   0.00000  -0.00042   2.07112
    R2        2.07154  -0.00015  -0.00042  -0.00000  -0.00042   2.07112
    R3        2.07154  -0.00015  -0.00042  -0.00000  -0.00042   2.07112
    R4        2.07154  -0.00015  -0.00042   0.00000  -0.00042   2.07112
    A1        1.91063  -0.00000  -0.00000  -0.00000   0.00000   1.91063
    A2        1.91063   0.00000   0.00000   0.00000   0.00000   1.91063
    A3        1.91063  -0.00000   0.00000  -0.00000  -0.00000   1.91063
    A4        1.91063  -0.00000   0.00000   0.00000   0.00000   1.91063
    A5        1.91063   0.00000   0.00000   0.00000   0.00000   1.91063
    A6        1.91063  -0.00000  -0.00000  -0.00000   0.00000   1.91063
    D1       -2.09440   0.00000   0.00000   0.00000   0.00000  -2.09440
    D2        2.09440  -0.00000  -0.00000  -0.00000  -0.00000   2.09440
    D3       -2.09440  -0.00000   0.00000  -0.00000   0.00000  -2.09440
    D4        2.09440   0.00000   0.00000   0.00000   0.00000   2.09440
         Item               Value     Threshold  Converged?
 Maximum Force            0.000147     0.000450     YES
 RMS     Force            0.000079     0.000300     YES
 Maximum Displacement     0.000415     0.001800     YES
 RMS     Displacement     0.000222     0.001200     YES
 Predicted change in Energy=-1.203695D-07
 Optimization completed.
    -- Stationary point found.
                           ----------------------------
                           !   Optimized Parameters   !
                           ! (Angstroms and Degrees)  !
 --------------------------                            --------------------------
 ! Name  Definition              Value          Derivative Info.                !
 --------------------------------------------------------------------------------
 ! R1    R(1,2)                  1.0962         -DE/DX =   -0.0001              !
[...]

 -------------------
 - Thermochemistry -
 -------------------
 Temperature   298.150 Kelvin.  Pressure   1.00000 Atm.
 Atom     1 has atomic number  6 and mass  12.00000
 Atom     2 has atomic number  1 and mass   1.00783
 Atom     3 has atomic number  1 and mass   1.00783
 Atom     4 has atomic number  1 and mass   1.00783
 Atom     5 has atomic number  1 and mass   1.00783
 Molecular mass:    16.03130 amu.
 Principal axes and moments of inertia in atomic units:
                           1         2         3
     Eigenvalues --    11.53294  11.53294  11.53294
           X            1.00000  -0.00000   0.00000
           Y            0.00000   1.00000   0.00000
           Z            0.00000   0.00000   1.00000
 This molecule is a spherical top.
 Rotational symmetry number 12.
 Rotational temperatures (Kelvin)      7.51012     7.51012     7.51012
 Rotational constants (GHZ):         156.48574   156.48574   156.48574
 Zero-point vibrational energy     119955.3 (Joules/Mol)
                                   28.67000 (Kcal/Mol)
 Vibrational temperatures:   2061.60  2061.60  2061.60  2283.04  2283.04
          (Kelvin)           4387.49  4572.06  4572.06  4572.06
 
 Zero-point correction=                           0.045689 (Hartree/Particle)
 Thermal correction to Energy=                    0.048547
 Thermal correction to Enthalpy=                  0.049492
 Thermal correction to Gibbs Free Energy=         0.028359
 Sum of electronic and zero-point Energies=            -40.235319
 Sum of electronic and thermal Energies=               -40.232460
 Sum of electronic and thermal Enthalpies=             -40.231516
 Sum of electronic and thermal Free Energies=          -40.252649
 
                     E (Thermal)             CV                S
                      KCal/Mol        Cal/Mol-Kelvin    Cal/Mol-Kelvin
 Total                   30.464              6.356             44.478
 Electronic               0.000              0.000              0.000
 Translational            0.889              2.981             34.261
 Rotational               0.889              2.981             10.154
 Vibrational             28.687              0.394              0.063
                       Q            Log10(Q)             Ln(Q)
 Total Bot       0.903565D-13        -13.044041        -30.035014
 Total V=0       0.935814D+08          7.971189         18.354342
 Vib (Bot)       0.969339D-21        -21.013524        -48.385428
 Vib (V=0)       0.100394D+01          0.001706          0.003927
 Electronic      0.100000D+01          0.000000          0.000000
 Translational   0.252295D+07          6.401908         14.740939
 Rotational      0.369467D+02          1.567575          3.609476
 
                                     methane with imposed symmetry and hf/6-31++G
  basis function
                                                             IR Spectrum
 
      3    3                                                         1     1                                                         
      1    0                                                         5     4                                                         
      7    4                                                         8     3                                                         
      8    9                                                         7     3                                                         
 
      X                                                                    X                                                         
      X                                                                    X                                                         
      X                                                                    X                                                         
      X                                                                    X                                                         
      X                                                                    X                                                         
      X                                                                    X                                                         
      X                                                                    X                                                         
      X                                                                    X                                                         
      X                                                                    X                                                         
      X                                                                    X                                                         
      X                                                                    X                                                         
      X                                                                    X                                                         
      X                                                                    X                                                         
      X                                                                                                                              
      X                                                                                                                              
      X                                                                                                                              
      X                                                                                                                              
      X                                                                                                                              
      X                                                                                                                              
      X                                                                                                                              
 
 ***** Axes restored to original set *****
 -------------------------------------------------------------------
 Center     Atomic                   Forces (Hartrees/Bohr)
 Number     Number              X              Y              Z
 -------------------------------------------------------------------
      1        6           0.000000000    0.000000000   -0.000000000
      2        1          -0.000000000   -0.000000000   -0.000147396
      3        1          -0.000138966    0.000000000    0.000049132
      4        1           0.000069483    0.000120348    0.000049132
      5        1           0.000069483   -0.000120348    0.000049132
 -------------------------------------------------------------------
 Cartesian Forces:  Max     0.000147396 RMS     0.000076115
 Force constants in Cartesian coordinates: 
                1             2             3             4             5 
      1  0.562235D+00
      2  0.000000D+00  0.562235D+00
      3  0.000000D+00  0.000000D+00  0.562235D+00
      4 -0.506361D-01  0.000000D+00  0.000000D+00  0.486714D-01
      5  0.000000D+00 -0.506361D-01  0.000000D+00  0.000000D+00  0.486714D-01
      6  0.000000D+00  0.000000D+00 -0.320404D+00  0.000000D+00  0.000000D+00
      7 -0.290430D+00  0.000000D+00  0.847800D-01  0.690442D-03  0.000000D+00
      8  0.000000D+00 -0.506361D-01  0.000000D+00  0.000000D+00  0.619368D-03
      9  0.847800D-01  0.000000D+00 -0.806103D-01  0.339024D-01  0.000000D+00
     10 -0.110585D+00 -0.103834D+00 -0.423900D-01  0.637136D-03  0.307758D-04
     11 -0.103834D+00 -0.230482D+00 -0.734217D-01  0.307759D-04  0.672673D-03
     12 -0.423900D-01 -0.734217D-01 -0.806103D-01 -0.169512D-01 -0.293604D-01
     13 -0.110585D+00  0.103834D+00 -0.423900D-01  0.637136D-03 -0.307759D-04
     14  0.103834D+00 -0.230482D+00  0.734217D-01 -0.307759D-04  0.672673D-03
     15 -0.423900D-01  0.734217D-01 -0.806103D-01 -0.169512D-01  0.293604D-01
                6             7             8             9            10 
      6  0.351563D+00
      7 -0.257351D-02  0.317908D+00
      8  0.000000D+00  0.000000D+00  0.486714D-01
      9 -0.103860D-01 -0.951895D-01  0.000000D+00  0.823259D-01
     10  0.128675D-02 -0.140841D-01 -0.276710D-01 -0.117465D-01  0.115980D+00
     11  0.222872D-02  0.211152D-02  0.672673D-03 -0.713891D-03  0.116583D+00
     12 -0.103860D-01  0.649149D-02  0.981581D-02  0.433521D-02  0.475948D-01
     13  0.128675D-02 -0.140841D-01  0.276710D-01 -0.117465D-01  0.805105D-02
     14 -0.222872D-02 -0.211152D-02  0.672673D-03  0.713891D-03  0.148912D-01
     15 -0.103860D-01  0.649149D-02 -0.981581D-02  0.433521D-02  0.525499D-02
               11            12            13            14            15 
     11  0.250599D+00
     12  0.824365D-01  0.823259D-01
     13 -0.148912D-01  0.525499D-02  0.115980D+00
     14 -0.214625D-01  0.105297D-01 -0.116583D+00  0.250599D+00
     15 -0.105297D-01  0.433521D-02  0.475948D-01 -0.824365D-01  0.823259D-01
 Force constants in internal coordinates: 
                1             2             3             4             5 
      1  0.351563D+00
      2  0.103568D-02  0.351563D+00
      3  0.103568D-02  0.103568D-02  0.351563D+00
      4  0.103568D-02  0.103568D-02  0.103568D-02  0.351563D+00
      5  0.243243D-02  0.243243D-02 -0.152734D-02 -0.333752D-02  0.207004D-01
      6  0.381221D-02 -0.983795D-03  0.424262D-02 -0.707103D-02 -0.869969D-02
      7  0.744979D-02 -0.597901D-02 -0.661848D-02  0.514771D-02 -0.135360D-01
      8 -0.983795D-03  0.381221D-02  0.424262D-02 -0.707103D-02 -0.869969D-02
      9 -0.597901D-02  0.744979D-02 -0.661848D-02  0.514771D-02 -0.135360D-01
     10 -0.673162D-02 -0.673162D-02  0.627907D-02  0.718416D-02  0.237709D-01
     11 -0.471115D-02 -0.471115D-02 -0.332552D-02  0.127478D-01 -0.146978D-01
     12  0.387977D-02  0.387977D-02 -0.997655D-02  0.221701D-02  0.877457D-02
     13 -0.510877D-02  0.898854D-02 -0.498828D-02  0.110851D-02  0.438729D-02
     14 -0.898854D-02  0.510877D-02  0.498828D-02 -0.110851D-02 -0.438729D-02
                6             7             8             9            10 
      6  0.395199D-01
      7 -0.237334D-01  0.771859D-01
      8 -0.130247D-02  0.242958D-01  0.395199D-01
      9  0.242958D-01 -0.366048D-01 -0.237334D-01  0.771859D-01
     10 -0.300802D-01 -0.276076D-01 -0.300802D-01 -0.276076D-01  0.916047D-01
     11 -0.127484D-01  0.162337D-01 -0.127484D-01  0.162337D-01  0.772727D-02
     12 -0.103105D-01  0.827264D-02 -0.103105D-01  0.827264D-02 -0.469890D-02
     13 -0.154479D-01 -0.129306D-02  0.513741D-02  0.956571D-02 -0.234945D-02
     14 -0.513741D-02 -0.956571D-02  0.154479D-01  0.129306D-02  0.234945D-02
               11            12            13            14 
     11  0.336146D-01
     12  0.188109D-02  0.208785D-01
     13  0.940546D-03  0.104392D-01  0.211503D-01
     14 -0.940546D-03 -0.104392D-01  0.107110D-01  0.211503D-01
 Leave Link  716 at Sat Aug 17 14:53:28 2024, MaxMem=   13107200 cpu:       0.0
 (Enter /programs/64bit/g09/g09-gfortran/bin/l103.exe)

 GradGradGradGradGradGradGradGradGradGradGradGradGradGradGradGradGradGrad
 Berny optimization.
 Internal  Forces:  Max     0.000147396 RMS     0.000078786
 Search for a local minimum.
 Step number   1 out of a maximum of    2
 All quantities printed in internal units (Hartrees-Bohrs-Radians)
 Second derivative matrix not updated -- analytic derivatives used.
 The second derivative matrix:
                          R1        R2        R3        R4        A1
           R1           0.35156
           R2           0.00104   0.35156
           R3           0.00104   0.00104   0.35156
           R4           0.00104   0.00104   0.00104   0.35156
           A1           0.00243   0.00243  -0.00153  -0.00334   0.02070
           A2           0.00381  -0.00098   0.00424  -0.00707  -0.00870
           A3           0.00745  -0.00598  -0.00662   0.00515  -0.01354
           A4          -0.00098   0.00381   0.00424  -0.00707  -0.00870
           A5          -0.00598   0.00745  -0.00662   0.00515  -0.01354
           A6          -0.00673  -0.00673   0.00628   0.00718   0.02377
           D1          -0.00471  -0.00471  -0.00333   0.01275  -0.01470
           D2           0.00388   0.00388  -0.00998   0.00222   0.00877
           D3          -0.00511   0.00899  -0.00499   0.00111   0.00439
           D4          -0.00899   0.00511   0.00499  -0.00111  -0.00439
                          A2        A3        A4        A5        A6
           A2           0.03952
           A3          -0.02373   0.07719
           A4          -0.00130   0.02430   0.03952
           A5           0.02430  -0.03660  -0.02373   0.07719
           A6          -0.03008  -0.02761  -0.03008  -0.02761   0.09160
           D1          -0.01275   0.01623  -0.01275   0.01623   0.00773
           D2          -0.01031   0.00827  -0.01031   0.00827  -0.00470
           D3          -0.01545  -0.00129   0.00514   0.00957  -0.00235
           D4          -0.00514  -0.00957   0.01545   0.00129   0.00235
                          D1        D2        D3        D4
           D1           0.03361
           D2           0.00188   0.02088
           D3           0.00094   0.01044   0.02115
           D4          -0.00094  -0.01044   0.01071   0.02115
     Eigenvalues ---    0.04234   0.04785   0.07323   0.13712   0.13716
     Eigenvalues ---    0.35197   0.35199   0.35244   0.354671000.00000
     Eigenvalues --- 1000.000001000.000001000.000001000.00000
 Angle between quadratic step and forces=   0.00 degrees.
 Linear search not attempted -- first point.
 Iteration  1 RMS(Cart)=  0.00022214 RMS(Int)=  0.00000000
 Iteration  2 RMS(Cart)=  0.00000000 RMS(Int)=  0.00000000
 ClnCor:  largest displacement from symmetrization is 2.60D-12 for atom     1.
 Variable       Old X    -DE/DX   Delta X   Delta X   Delta X     New X
                                 (Linear)    (Quad)   (Total)
    R1        2.07154  -0.00015   0.00000  -0.00042  -0.00042   2.07112
    R2        2.07154  -0.00015   0.00000  -0.00042  -0.00042   2.07112
    R3        2.07154  -0.00015   0.00000  -0.00042  -0.00042   2.07112
    R4        2.07154  -0.00015   0.00000  -0.00042  -0.00042   2.07112
    A1        1.91063  -0.00000   0.00000   0.00000   0.00000   1.91063
    A2        1.91063   0.00000   0.00000   0.00000   0.00000   1.91063
    A3        1.91063   0.00000   0.00000  -0.00000   0.00000   1.91063
    A4        1.91063   0.00000   0.00000   0.00000   0.00000   1.91063
    A5        1.91063   0.00000   0.00000  -0.00000   0.00000   1.91063
    A6        1.91063  -0.00000   0.00000  -0.00000  -0.00000   1.91063
    D1       -2.09440  -0.00000   0.00000  -0.00000   0.00000  -2.09440
    D2        2.09440   0.00000   0.00000   0.00000   0.00000   2.09440
    D3       -2.09440   0.00000   0.00000  -0.00000   0.00000  -2.09440
    D4        2.09440   0.00000   0.00000  -0.00000   0.00000   2.09440
         Item               Value     Threshold  Converged?
 Maximum Force            0.000147     0.000450     YES
 RMS     Force            0.000079     0.000300     YES
 Maximum Displacement     0.000416     0.001800     YES
 RMS     Displacement     0.000222     0.001200     YES
 Predicted change in Energy=-1.225111D-07
 Optimization completed.
    -- Stationary point found.
                           ----------------------------
                           !   Optimized Parameters   !
                           ! (Angstroms and Degrees)  !
 --------------------------                            --------------------------
 ! Name  Definition              Value          Derivative Info.                !
 --------------------------------------------------------------------------------
 ! R1    R(1,2)                  1.0962         -DE/DX =   -0.0001              !
 ! R2    R(1,3)                  1.0962         -DE/DX =   -0.0001              !
 ! R3    R(1,4)                  1.0962         -DE/DX =   -0.0001              !
 ! R4    R(1,5)                  1.0962         -DE/DX =   -0.0001              !
 ! A1    A(2,1,3)              109.4712         -DE/DX =    0.0                 !
 ! A2    A(2,1,4)              109.4712         -DE/DX =    0.0                 !
 ! A3    A(2,1,5)              109.4712         -DE/DX =    0.0                 !
 ! A4    A(3,1,4)              109.4712         -DE/DX =    0.0                 !
 ! A5    A(3,1,5)              109.4712         -DE/DX =    0.0                 !
 ! A6    A(4,1,5)              109.4712         -DE/DX =    0.0                 !
 ! D1    D(2,1,4,3)           -120.0            -DE/DX =    0.0                 !
 ! D2    D(2,1,5,3)            120.0            -DE/DX =    0.0                 !
 ! D3    D(2,1,5,4)           -120.0            -DE/DX =    0.0                 !
 ! D4    D(3,1,5,4)            120.0            -DE/DX =    0.0                 !
 --------------------------------------------------------------------------------
 GradGradGradGradGradGradGradGradGradGradGradGradGradGradGradGradGradGrad

 Leave Link  103 at Sat Aug 17 14:53:28 2024, MaxMem=   13107200 cpu:       0.0
 (Enter /programs/64bit/g09/g09-gfortran/bin/l9999.exe)
 1\1\GINC-MOLMOD\Freq\RMP2-FC\6-31++G\C1H4\OSPITE\17-Aug-2024\0\\#P Geo
 m=AllCheck Guess=TCheck SCRF=Check GenChk RMP2(FC)/6-31++G Freq\\metha
 ne with imposed symmetry and hf/6-31++G basis function\\0,1\C,0.,0.,0.
 \H,0.,0.,1.0962113165\H,1.0335179407,0.,-0.3654037722\H,-0.5167589704,
 -0.8950527919,-0.3654037722\H,-0.5167589704,0.8950527919,-0.3654037722
 \\Version=EM64L-G09RevA.02\State=1-A1\HF=-40.1807065\MP2=-40.2810072\R
 MSD=3.031e-10\RMSF=7.611e-05\ZeroPoint=0.0456886\Thermal=0.0485474\Dip
 ole=0.,0.,0.\DipoleDeriv=-0.0165051,0.,0.,0.,-0.0165051,0.,0.,0.,-0.01
 65051,0.0887523,0.,0.,0.,0.0887523,0.,0.,0.,-0.1651257,-0.1369171,0.,0
 .0797861,0.,0.0887523,0.,0.0797861,0.,0.0605436,0.0323349,-0.0977177,-
 0.0398931,-0.0977177,-0.0804997,-0.0690968,-0.0398931,-0.0690968,0.060
 5436,0.0323349,0.0977177,-0.0398931,0.0977177,-0.0804997,0.0690968,-0.
 0398931,0.0690968,0.0605436\Polar=13.4061961,0.,13.4061961,0.,0.,13.40
 61961\PG=TD [O(C1),4C3(H1)]\NImag=0\\0.56223549,0.,0.56223549,0.,0.,0.
 56223549,-0.05063607,0.,0.,0.04867135,0.,-0.05063607,0.,0.,0.04867135,
 0.,0.,-0.32040448,0.,0.,0.35156251,-0.29043022,0.,0.08478004,0.0006904
 4,0.,-0.00257351,0.31790794,0.,-0.05063607,0.,0.,0.00061937,0.,0.,0.04
 867135,0.08478003,0.,-0.08061033,0.03390244,0.,-0.01038601,-0.09518951
 ,0.,0.08232592,-0.11058460,-0.10383391,-0.04239002,0.00063714,0.000030
 78,0.00128675,-0.01408408,-0.02767097,-0.01174648,0.11598050,-0.103833
 91,-0.23048168,-0.07342166,0.00003078,0.00067267,0.00222872,0.00211152
 ,0.00067267,-0.00071389,0.11658286,0.25059879,-0.04239002,-0.07342166,
 -0.08061033,-0.01695122,-0.02936038,-0.01038601,0.00649149,0.00981581,
 0.00433521,0.04759475,0.08243653,0.08232592,-0.11058460,0.10383391,-0.
 04239002,0.00063714,-0.00003078,0.00128675,-0.01408408,0.02767097,-0.0
 1174648,0.00805105,-0.01489124,0.00525499,0.11598050,0.10383391,-0.230
 48168,0.07342166,-0.00003078,0.00067267,-0.00222872,-0.00211152,0.0006
 7267,0.00071389,0.01489124,-0.02146246,0.01052970,-0.11658286,0.250598
 79,-0.04239002,0.07342166,-0.08061033,-0.01695122,0.02936038,-0.010386
 01,0.00649149,-0.00981581,0.00433521,0.00525499,-0.01052970,0.00433521
 ,0.04759475,-0.08243653,0.08232592\\0.,0.,0.,0.,0.,0.00014740,0.000138
 97,0.,-0.00004913,-0.00006948,-0.00012035,-0.00004913,-0.00006948,0.00
 012035,-0.00004913\\\@


 HEAVEN'S NET CASTS WIDE.
 THOUGH ITS MESHES ARE COARSE, NOTHING SLIPS THROUGH.

                                          -- LAO-TSU
 Job cpu time:  0 days  0 hours  0 minutes  5.1 seconds.
 File lengths (MBytes):  RWF=     20 Int=      0 D2E=      0 Chk=      1 Scr=      1
 Normal termination of Gaussian 09 at Sat Aug 17 14:53:28 2024.
