 Entering Gaussian System, Link 0=/programs/64bit/g09/g09-gfortran/bin/g09
 Input=h2_++.com
 Output=h2_++.log
 Initial command:
 /programs/64bit/g09/g09-gfortran/bin/l1.exe /home/ospite/Desktop/MMfP/Project6/H2/g09/DFT/B3PW91/Gau-14993.inp -scrdir=/home/ospite/Desktop/MMfP/Project6/H2/g09/DFT/B3PW91/
 Entering Link 1 = /programs/64bit/g09/g09-gfortran/bin/l1.exe PID=     14994.
  
 Copyright (c) 1988,1990,1992,1993,1995,1998,2003,2009, Gaussian, Inc.
                  All Rights Reserved.
  
 This is part of the Gaussian(R) 09 program.  It is based on
 the Gaussian(R) 03 system (copyright 2003, Gaussian, Inc.),
 the Gaussian(R) 98 system (copyright 1998, Gaussian, Inc.),
 the Gaussian(R) 94 system (copyright 1995, Gaussian, Inc.),
 the Gaussian 92(TM) system (copyright 1992, Gaussian, Inc.),
 the Gaussian 90(TM) system (copyright 1990, Gaussian, Inc.),
 the Gaussian 88(TM) system (copyright 1988, Gaussian, Inc.),
 the Gaussian 86(TM) system (copyright 1986, Carnegie Mellon
 University), and the Gaussian 82(TM) system (copyright 1983,
 Carnegie Mellon University). Gaussian is a federally registered
 trademark of Gaussian, Inc.
  
 This software contains proprietary and confidential information,
 including trade secrets, belonging to Gaussian, Inc.
  
 This software is provided under written license and may be
 used, copied, transmitted, or stored only in accord with that
 written license.
  
 The following legend is applicable only to US Government
 contracts under FAR:
  
                    RESTRICTED RIGHTS LEGEND
  
 Use, reproduction and disclosure by the US Government is
 subject to restrictions as set forth in subparagraphs (a)
 and (c) of the Commercial Computer Software - Restricted
 Rights clause in FAR 52.227-19.
  
 Gaussian, Inc.
 340 Quinnipiac St., Bldg. 40, Wallingford CT 06492
  
  
 ---------------------------------------------------------------
 Warning -- This program may not be used in any manner that
 competes with the business of Gaussian, Inc. or will provide
 assistance to any competitor of Gaussian, Inc.  The licensee
 of this program is prohibited from giving any competitor of
 Gaussian, Inc. access to this program.  By using this program,
 the user acknowledges that Gaussian, Inc. is engaged in the
 business of creating and licensing software in the field of
 computational chemistry and represents and warrants to the
 licensee that it is not a competitor of Gaussian, Inc. and that
 it will not use this program in any manner prohibited above.
 ---------------------------------------------------------------
  

 Cite this work as:
 Gaussian 09, Revision A.02,
 M. J. Frisch, G. W. Trucks, H. B. Schlegel, G. E. Scuseria, 
 M. A. Robb, J. R. Cheeseman, G. Scalmani, V. Barone, B. Mennucci, 
 G. A. Petersson, H. Nakatsuji, M. Caricato, X. Li, H. P. Hratchian, 
 A. F. Izmaylov, J. Bloino, G. Zheng, J. L. Sonnenberg, M. Hada, 
 M. Ehara, K. Toyota, R. Fukuda, J. Hasegawa, M. Ishida, T. Nakajima, 
 Y. Honda, O. Kitao, H. Nakai, T. Vreven, J. A. Montgomery, Jr., 
 J. E. Peralta, F. Ogliaro, M. Bearpark, J. J. Heyd, E. Brothers, 
 K. N. Kudin, V. N. Staroverov, R. Kobayashi, J. Normand, 
 K. Raghavachari, A. Rendell, J. C. Burant, S. S. Iyengar, J. Tomasi, 
 M. Cossi, N. Rega, J. M. Millam, M. Klene, J. E. Knox, J. B. Cross, 
 V. Bakken, C. Adamo, J. Jaramillo, R. Gomperts, R. E. Stratmann, 
 O. Yazyev, A. J. Austin, R. Cammi, C. Pomelli, J. W. Ochterski, 
 R. L. Martin, K. Morokuma, V. G. Zakrzewski, G. A. Voth, 
 P. Salvador, J. J. Dannenberg, S. Dapprich, A. D. Daniels, 
 O. Farkas, J. B. Foresman, J. V. Ortiz, J. Cioslowski, 
 and D. J. Fox, Gaussian, Inc., Wallingford CT, 2009.
 
 ******************************************
 Gaussian 09:  EM64L-G09RevA.02 11-Jun-2009
                17-Aug-2024 
 ******************************************
 %mem=100MB
 -------------------------------------------
 #p b3pw91/6-31++G opt freq pop=full gfinput
 -------------------------------------------
 1/14=-1,18=20,19=15,26=3,38=1/1,3;
 2/9=110,12=2,17=6,18=5,40=1/2;
 3/5=1,6=6,7=1010,11=2,16=1,24=10,25=1,30=1,71=1,74=-6/1,2,3;
 4//1;
 5/5=2,38=5/2;
 6/7=3,28=1/1;
 7//1,2,3,16;
 1/14=-1,18=20,19=15/3(2);
 2/9=110/2;
 99//99;
 2/9=110/2;
 3/5=1,6=6,7=1010,11=2,16=1,25=1,30=1,71=1,74=-6/1,2,3;
 4/5=5,16=3/1;
 5/5=2,38=5/2;
 7//1,2,3,16;
 1/14=-1,18=20,19=15/3(-5);
 2/9=110/2;
 6/7=3,19=2,28=1/1;
 99/9=1/99;
 Leave Link    1 at Sat Aug 17 22:33:43 2024, MaxMem=   13107200 cpu:       0.1
 (Enter /programs/64bit/g09/g09-gfortran/bin/l101.exe)
 -------------------------------------------------
 hydrogen(molecule) with hf/6-31++G basis function
 -------------------------------------------------
 Symbolic Z-matrix:
 Charge =  0 Multiplicity = 1
 H1
 H2                   1    d
       Variables:
  d                     0.74                     
 
 NAtoms=      2 NQM=      2 NQMF=      0 NMic=      0 NMicF=      0 NTot=      2.
                    Isotopes and Nuclear Properties:
 (Nuclear quadrupole moments (NQMom) in fm**2, nuclear magnetic moments (NMagM)
  in nuclear magnetons)

  Atom         1           2
 IAtWgt=           1           1
 AtmWgt=   1.0078250   1.0078250
 NucSpn=           1           1
 AtZEff=   0.0000000   0.0000000
 NQMom=    0.0000000   0.0000000
 NMagM=    2.7928460   2.7928460
 Leave Link  101 at Sat Aug 17 22:33:43 2024, MaxMem=   13107200 cpu:       0.1
 (Enter /programs/64bit/g09/g09-gfortran/bin/l103.exe)

 GradGradGradGradGradGradGradGradGradGradGradGradGradGradGradGradGradGrad
 Berny optimization.
 Initialization pass.
                           ----------------------------
                           !    Initial Parameters    !
                           ! (Angstroms and Degrees)  !
 --------------------------                            --------------------------
 ! Name  Definition              Value          Derivative Info.                !
 --------------------------------------------------------------------------------
 ! R1    R(1,2)                  0.74           estimate D2E/DX2                !
 --------------------------------------------------------------------------------
 Trust Radius=3.00D-01 FncErr=1.00D-07 GrdErr=1.00D-06
 Number of steps in this run=  20 maximum allowed number of steps= 100.
 GradGradGradGradGradGradGradGradGradGradGradGradGradGradGradGradGradGrad

 Leave Link  103 at Sat Aug 17 22:33:44 2024, MaxMem=   13107200 cpu:       0.0
 (Enter /programs/64bit/g09/g09-gfortran/bin/l202.exe)
                          Input orientation:                          
 ---------------------------------------------------------------------
 Center     Atomic      Atomic             Coordinates (Angstroms)
 Number     Number       Type             X           Y           Z
 ---------------------------------------------------------------------
      1          1           0        0.000000    0.000000    0.000000
      2          1           0        0.000000    0.000000    0.740000
 ---------------------------------------------------------------------
 Stoichiometry    H2
 Framework group  D*H[C*(H.H)]
 Deg. of freedom     1
 Full point group                 D*H     NOp   8
 Largest Abelian subgroup         D2H     NOp   8
 Largest concise Abelian subgroup C2      NOp   2
                         Standard orientation:                         
 ---------------------------------------------------------------------
 Center     Atomic      Atomic             Coordinates (Angstroms)
 Number     Number       Type             X           Y           Z
 ---------------------------------------------------------------------
      1          1           0        0.000000    0.000000    0.370000
      2          1           0        0.000000    0.000000   -0.370000
 ---------------------------------------------------------------------
 Rotational constants (GHZ):      0.0000000   1831.4649389   1831.4649389
 Leave Link  202 at Sat Aug 17 22:33:44 2024, MaxMem=   13107200 cpu:       0.0
 (Enter /programs/64bit/g09/g09-gfortran/bin/l301.exe)
 Standard basis: 6-31++G (6D, 7F)
 Ernie: Thresh=  0.10000D-02 Tol=  0.10000D-05 Strict=F.
 AO basis set in the form of general basis input (Overlap normalization):
      1 0
 S   3 1.00       0.000000000000
      0.1873113696D+02  0.3349460434D-01
      0.2825394365D+01  0.2347269535D+00
      0.6401216923D+00  0.8137573261D+00
 S   1 1.00       0.000000000000
      0.1612777588D+00  0.1000000000D+01
 S   1 1.00       0.000000000000
      0.3600000000D-01  0.1000000000D+01
 ****
      2 0
 S   3 1.00       0.000000000000
      0.1873113696D+02  0.3349460434D-01
      0.2825394365D+01  0.2347269535D+00
      0.6401216923D+00  0.8137573261D+00
 S   1 1.00       0.000000000000
      0.1612777588D+00  0.1000000000D+01
 S   1 1.00       0.000000000000
      0.3600000000D-01  0.1000000000D+01
 ****

 There are     3 symmetry adapted basis functions of AG  symmetry.
 There are     0 symmetry adapted basis functions of B1G symmetry.
 There are     0 symmetry adapted basis functions of B2G symmetry.
 There are     0 symmetry adapted basis functions of B3G symmetry.
 There are     0 symmetry adapted basis functions of AU  symmetry.
 There are     3 symmetry adapted basis functions of B1U symmetry.
 There are     0 symmetry adapted basis functions of B2U symmetry.
 There are     0 symmetry adapted basis functions of B3U symmetry.
 Integral buffers will be    131072 words long.
 Raffenetti 2 integral format.
 Two-electron integral symmetry is turned on.
     6 basis functions,    10 primitive gaussians,     6 cartesian basis functions
     1 alpha electrons        1 beta electrons
       nuclear repulsion energy         0.7151043359 Hartrees.
 IExCor=  408 DFT=T Ex+Corr=B3PW91 ExCW=0 ScaHFX=  0.200000
 ScaDFX=  0.800000  0.720000  1.000000  0.810000 ScalE2=  1.000000  1.000000
 IRadAn=      0 IRanWt=     -1 IRanGd=            0 ICorTp=0
 NAtoms=    2 NActive=    2 NUniq=    1 SFac= 3.00D+00 NAtFMM=   80 NAOKFM=F Big=F
 Leave Link  301 at Sat Aug 17 22:33:44 2024, MaxMem=   13107200 cpu:       0.1
 (Enter /programs/64bit/g09/g09-gfortran/bin/l302.exe)
 NPDir=0 NMtPBC=     1 NCelOv=     1 NCel=       1 NClECP=     1 NCelD=      1
         NCelK=      1 NCelE2=     1 NClLst=     1 CellRange=     0.0.
 One-electron integrals computed using PRISM.
 One-electron integral symmetry used in STVInt
 NBasis=     6 RedAO= T  NBF=     3     0     0     0     0     3     0     0
 NBsUse=     6 1.00D-06 NBFU=     3     0     0     0     0     3     0     0
 Precomputing XC quadrature grid using
 IXCGrd= 2 IRadAn=           0 IRanWt=          -1 IRanGd=           0 AccXCQ= 1.00D-10.
 NRdTot=     128 NPtTot=       16336 NUsed=       17271 NTot=       17303
 NSgBfM=     6     6     6     6     6 NAtAll=     2     2.
 Leave Link  302 at Sat Aug 17 22:33:44 2024, MaxMem=   13107200 cpu:       0.1
 (Enter /programs/64bit/g09/g09-gfortran/bin/l303.exe)
 DipDrv:  MaxL=1.
 Leave Link  303 at Sat Aug 17 22:33:44 2024, MaxMem=   13107200 cpu:       0.0
 (Enter /programs/64bit/g09/g09-gfortran/bin/l401.exe)
 Harris functional with IExCor=  408 diagonalized for initial guess.
 ExpMin= 3.60D-02 ExpMax= 1.87D+01 ExpMxC= 1.87D+01 IAcc=3 IRadAn=         0 AccDes= 0.00D+00
 HarFok:  IExCor=  408 AccDes= 0.00D+00 IRadAn=         0 IDoV= 1
 ScaDFX=  1.000000  1.000000  1.000000  1.000000
 FoFCou: FMM=F IPFlag=           0 FMFlag=      100000 FMFlg1=           0
         NFxFlg=           0 DoJE=T BraDBF=F KetDBF=T FulRan=T
         Omega=  0.000000  0.000000  1.000000  0.000000  0.000000 ICntrl=     500 IOpCl=  0
         NMat0=    1 NMatS0=    1 NMatT0=    0 NMatD0=    1 NMtDS0=    0 NMtDT0=    0
         I1Cent=           4 NGrid=           0.
 Petite list used in FoFCou.
 Harris En= -1.18591241048150    
 Initial guess orbital symmetries:
       Occupied  (SGG)
       Virtual   (SGU) (SGG) (SGU) (SGG) (SGU)
 The electronic state of the initial guess is 1-SGG.
 Leave Link  401 at Sat Aug 17 22:33:44 2024, MaxMem=   13107200 cpu:       0.2
 (Enter /programs/64bit/g09/g09-gfortran/bin/l502.exe)
 Closed shell SCF:
 Requested convergence on RMS density matrix=1.00D-08 within 128 cycles.
 Requested convergence on MAX density matrix=1.00D-06.
 Requested convergence on             energy=1.00D-06.
 No special actions if energy rises.
 Using DIIS extrapolation, IDIIS=  1040.
 Integral symmetry usage will be decided dynamically.
        17240 words used for storage of precomputed grid.
 Keep R1 ints in memory in canonical form, NReq=878788.
 IEnd=       37025 IEndB=       37025 NGot=    13107200 MDV=    13087019
 LenX=    13087019 LenY=    13086137
 Symmetry not used in FoFDir.
 MinBra= 0 MaxBra= 0 Meth= 1.
 IRaf=       0 NMat=   1 IRICut=       1 DoRegI=T DoRafI=F ISym2E= 0 JSym2E=0.

 Cycle   1  Pass 1  IDiag  1:
 E= -1.17140119069257    
 DIIS: error= 1.49D-02 at cycle   1 NSaved=   1.
 NSaved= 1 IEnMin= 1 EnMin= -1.17140119069257     IErMin= 1 ErrMin= 1.49D-02
 ErrMax= 1.49D-02 EMaxC= 1.00D-01 BMatC= 1.90D-03 BMatP= 1.90D-03
 IDIUse=3 WtCom= 8.51D-01 WtEn= 1.49D-01
 Coeff-Com:  0.100D+01
 Coeff-En:   0.100D+01
 Coeff:      0.100D+01
 Gap=     0.458 Goal=   None    Shift=    0.000
 GapD=    0.458 DampG=2.000 DampE=0.500 DampFc=1.0000 IDamp=-1.
 RMSDP=8.27D-03 MaxDP=2.14D-02              OVMax= 3.60D-02

 Cycle   2  Pass 1  IDiag  1:
 E= -1.17474709708057     Delta-E=       -0.003345906388 Rises=F Damp=F
 DIIS: error= 2.08D-03 at cycle   2 NSaved=   2.
 NSaved= 2 IEnMin= 2 EnMin= -1.17474709708057     IErMin= 2 ErrMin= 2.08D-03
 ErrMax= 2.08D-03 EMaxC= 1.00D-01 BMatC= 3.64D-05 BMatP= 1.90D-03
 IDIUse=3 WtCom= 9.79D-01 WtEn= 2.08D-02
 Coeff-Com:  0.122D+00 0.878D+00
 Coeff-En:   0.000D+00 0.100D+01
 Coeff:      0.119D+00 0.881D+00
 Gap=     0.465 Goal=   None    Shift=    0.000
 RMSDP=9.86D-04 MaxDP=2.51D-03 DE=-3.35D-03 OVMax= 4.62D-03

 Cycle   3  Pass 1  IDiag  1:
 E= -1.17481425599758     Delta-E=       -0.000067158917 Rises=F Damp=F
 DIIS: error= 2.20D-05 at cycle   3 NSaved=   3.
 NSaved= 3 IEnMin= 3 EnMin= -1.17481425599758     IErMin= 3 ErrMin= 2.20D-05
 ErrMax= 2.20D-05 EMaxC= 1.00D-01 BMatC= 2.88D-09 BMatP= 3.64D-05
 IDIUse=1 WtCom= 1.00D+00 WtEn= 0.00D+00
 Coeff-Com: -0.661D-02-0.388D-01 0.105D+01
 Coeff:     -0.661D-02-0.388D-01 0.105D+01
 Gap=     0.465 Goal=   None    Shift=    0.000
 RMSDP=1.02D-05 MaxDP=2.31D-05 DE=-6.72D-05 OVMax= 8.76D-06

 Cycle   4  Pass 1  IDiag  1:
 E= -1.17481426047561     Delta-E=       -0.000000004478 Rises=F Damp=F
 DIIS: error= 2.37D-07 at cycle   4 NSaved=   4.
 NSaved= 4 IEnMin= 4 EnMin= -1.17481426047561     IErMin= 4 ErrMin= 2.37D-07
 ErrMax= 2.37D-07 EMaxC= 1.00D-01 BMatC= 2.85D-13 BMatP= 2.88D-09
 IDIUse=1 WtCom= 1.00D+00 WtEn= 0.00D+00
 Coeff-Com:  0.559D-05-0.270D-03-0.335D-01 0.103D+01
 Coeff:      0.559D-05-0.270D-03-0.335D-01 0.103D+01
 Gap=     0.465 Goal=   None    Shift=    0.000
 RMSDP=1.90D-07 MaxDP=2.62D-07 DE=-4.48D-09 OVMax= 1.12D-06

 Cycle   5  Pass 1  IDiag  1:
 E= -1.17481426047682     Delta-E=       -0.000000000001 Rises=F Damp=F
 DIIS: error= 5.52D-11 at cycle   5 NSaved=   5.
 NSaved= 5 IEnMin= 5 EnMin= -1.17481426047682     IErMin= 5 ErrMin= 5.52D-11
 ErrMax= 5.52D-11 EMaxC= 1.00D-01 BMatC= 1.81D-20 BMatP= 2.85D-13
 IDIUse=1 WtCom= 1.00D+00 WtEn= 0.00D+00
 Large coefficients: NSaved=  5 BigCof=    0.00 CofMax=   10.00 Det=-6.18D-28
 Inversion failed.  Reducing to  4 matrices.
 Coeff-Com: -0.208D-10 0.222D-05-0.122D-03 0.100D+01
 Coeff:     -0.208D-10 0.222D-05-0.122D-03 0.100D+01
 Gap=     0.465 Goal=   None    Shift=    0.000
 RMSDP=2.34D-11 MaxDP=5.14D-11 DE=-1.21D-12 OVMax= 1.55D-10

 SCF Done:  E(RB3PW91) =  -1.17481426048     A.U. after    5 cycles
             Convg  =    0.2345D-10             -V/T =  2.0276
 KE= 1.143227238694D+00 PE=-3.638102836447D+00 EE= 6.049570013437D-01
 Leave Link  502 at Sat Aug 17 22:33:44 2024, MaxMem=   13107200 cpu:       0.1
 (Enter /programs/64bit/g09/g09-gfortran/bin/l601.exe)
 Copying SCF densities to generalized density rwf, IOpCl= 0 IROHF=0.

 **********************************************************************

            Population analysis using the SCF density.

 **********************************************************************

 Orbital symmetries:
       Occupied  (SGG)
       Virtual   (SGU) (SGG) (SGU) (SGG) (SGU)
 The electronic state is 1-SGG.
 Alpha  occ. eigenvalues --   -0.43618
 Alpha virt. eigenvalues --    0.02852   0.04710   0.18436   0.75883   1.19971
     Molecular Orbital Coefficients:
                           1         2         3         4         5
                       (SGG)--O  (SGU)--V  (SGG)--V  (SGU)--V  (SGG)--V
     Eigenvalues --    -0.43618   0.02852   0.04710   0.18436   0.75883
   1 1   H  1S          0.33516   0.10558  -0.09692  -0.19010  -0.82121
   2        2S          0.25733   0.42354  -0.31080  -1.84377   0.95905
   3        3S          0.01175   3.14314   0.65351   3.13033  -0.36309
   4 2   H  1S          0.33516  -0.10558  -0.09692   0.19010  -0.82121
   5        2S          0.25733  -0.42354  -0.31080   1.84377   0.95905
   6        3S          0.01175  -3.14314   0.65351  -3.13033  -0.36309
                           6
                       (SGU)--V
     Eigenvalues --     1.19971
   1 1   H  1S         -1.13621
   2        2S          1.81744
   3        3S         -1.24894
   4 2   H  1S          1.13621
   5        2S         -1.81744
   6        3S          1.24894
     Density Matrix:
                           1         2         3         4         5
   1 1   H  1S          0.22467
   2        2S          0.17250   0.13244
   3        3S          0.00787   0.00605   0.00028
   4 2   H  1S          0.22467   0.17250   0.00787   0.22467
   5        2S          0.17250   0.13244   0.00605   0.17250   0.13244
   6        3S          0.00787   0.00605   0.00028   0.00787   0.00605
                           6
   6        3S          0.00028
    Full Mulliken population analysis:
                           1         2         3         4         5
   1 1   H  1S          0.22467
   2        2S          0.11355   0.13244
   3        3S          0.00213   0.00410   0.00028
   4 2   H  1S          0.10229   0.08781   0.00199   0.22467
   5        2S          0.08781   0.11312   0.00388   0.11355   0.13244
   6        3S          0.00199   0.00388   0.00027   0.00213   0.00410
                           6
   6        3S          0.00028
     Gross orbital populations:
                           1
   1 1   H  1S          0.53245
   2        2S          0.45491
   3        3S          0.01264
   4 2   H  1S          0.53245
   5        2S          0.45491
   6        3S          0.01264
          Condensed to atoms (all electrons):
              1          2
     1  H    0.596964   0.403036
     2  H    0.403036   0.596964
 Mulliken atomic charges:
              1
     1  H    0.000000
     2  H    0.000000
 Sum of Mulliken atomic charges =   0.00000
 Mulliken charges with hydrogens summed into heavy atoms:
              1
 Sum of Mulliken charges with hydrogens summed into heavy atoms =   0.00000
 Electronic spatial extent (au):  <R**2>=              5.2480
 Charge=              0.0000 electrons
 Dipole moment (field-independent basis, Debye):
    X=              0.0000    Y=              0.0000    Z=             -0.0000  Tot=              0.0000
 Quadrupole moment (field-independent basis, Debye-Ang):
   XX=             -2.0532   YY=             -2.0532   ZZ=             -1.6371
   XY=              0.0000   XZ=             -0.0000   YZ=              0.0000
 Traceless Quadrupole moment (field-independent basis, Debye-Ang):
   XX=             -0.1387   YY=             -0.1387   ZZ=              0.2775
   XY=              0.0000   XZ=             -0.0000   YZ=              0.0000
 Octapole moment (field-independent basis, Debye-Ang**2):
  XXX=             -0.0000  YYY=              0.0000  ZZZ=             -0.0000  XYY=             -0.0000
  XXY=              0.0000  XXZ=             -0.0000  XZZ=             -0.0000  YZZ=              0.0000
  YYZ=             -0.0000  XYZ=              0.0000
 Hexadecapole moment (field-independent basis, Debye-Ang**3):
 XXXX=             -2.0341 YYYY=             -2.0341 ZZZZ=             -3.0235 XXXY=              0.0000
 XXXZ=              0.0000 YYYX=              0.0000 YYYZ=              0.0000 ZZZX=              0.0000
 ZZZY=              0.0000 XXYY=             -0.6780 XXZZ=             -0.8538 YYZZ=             -0.8538
 XXYZ=              0.0000 YYXZ=              0.0000 ZZXY=              0.0000
 N-N= 7.151043359324D-01 E-N=-3.638102836540D+00  KE= 1.143227238694D+00
 Symmetry AG   KE= 1.143227238694D+00
 Symmetry B1G  KE= 0.000000000000D+00
 Symmetry B2G  KE= 0.000000000000D+00
 Symmetry B3G  KE= 0.000000000000D+00
 Symmetry AU   KE= 0.000000000000D+00
 Symmetry B1U  KE= 6.292154869350D-33
 Symmetry B2U  KE= 0.000000000000D+00
 Symmetry B3U  KE= 0.000000000000D+00
 Orbital energies and kinetic energies (alpha):
                                 1                 2
   1         (SGG)--O         -0.436182          0.571614
   2         (SGU)--V          0.028521          0.157520
   3         (SGG)--V          0.047097          0.147744
   4         (SGU)--V          0.184357          0.528832
   5         (SGG)--V          0.758834          1.571025
   6         (SGU)--V          1.199714          2.582389
 Total kinetic energy from orbitals= 1.143227238694D+00
 No NMR shielding tensors so no spin-rotation constants.
 Leave Link  601 at Sat Aug 17 22:33:45 2024, MaxMem=   13107200 cpu:       0.1
 (Enter /programs/64bit/g09/g09-gfortran/bin/l701.exe)
 Compute integral first derivatives.
 ... and contract with generalized density number  0.
 Leave Link  701 at Sat Aug 17 22:33:45 2024, MaxMem=   13107200 cpu:       0.1
 (Enter /programs/64bit/g09/g09-gfortran/bin/l702.exe)
 L702 exits ... SP integral derivatives will be done elsewhere.
 Leave Link  702 at Sat Aug 17 22:33:45 2024, MaxMem=   13107200 cpu:       0.1
 (Enter /programs/64bit/g09/g09-gfortran/bin/l703.exe)
 Compute integral first derivatives, UseDBF=F ICtDFT=           0.
 Integral derivatives from FoFDir, PRISM(SPDF).
 Calling FoFJK, ICntrl=      2127 FMM=F ISym2X=1 I1Cent= 0 IOpClX= 0 NMat=1 NMatS=1 NMatT=0.
 FoFCou: FMM=F IPFlag=           0 FMFlag=      100000 FMFlg1=         800
         NFxFlg=           0 DoJE=F BraDBF=F KetDBF=F FulRan=T
         Omega=  0.000000  0.000000  1.000000  0.000000  0.000000 ICntrl=    2127 IOpCl=  0
         NMat0=    1 NMatS0=    1 NMatT0=    0 NMatD0=    1 NMtDS0=    0 NMtDT0=    0
         I1Cent=           0 NGrid=           0.
 Petite list used in FoFCou.
 Leave Link  703 at Sat Aug 17 22:33:45 2024, MaxMem=   13107200 cpu:       0.1
 (Enter /programs/64bit/g09/g09-gfortran/bin/l716.exe)
 Dipole        = 0.00000000D+00 0.00000000D+00-1.11022302D-16
 ***** Axes restored to original set *****
 -------------------------------------------------------------------
 Center     Atomic                   Forces (Hartrees/Bohr)
 Number     Number              X              Y              Z
 -------------------------------------------------------------------
      1        1           0.000000000    0.000000000   -0.002359153
      2        1          -0.000000000   -0.000000000    0.002359153
 -------------------------------------------------------------------
 Cartesian Forces:  Max     0.002359153 RMS     0.001362057
 Leave Link  716 at Sat Aug 17 22:33:45 2024, MaxMem=   13107200 cpu:       0.0
 (Enter /programs/64bit/g09/g09-gfortran/bin/l103.exe)

 GradGradGradGradGradGradGradGradGradGradGradGradGradGradGradGradGradGrad
 Berny optimization.
 Internal  Forces:  Max     0.002359153 RMS     0.002359153
 Search for a local minimum.
 Step number   1 out of a maximum of   20
 All quantities printed in internal units (Hartrees-Bohrs-Radians)
 RMS Force = .23592D-02 SwitMx=.10000D-02 MixMth= 1
 Mixed Optimization -- RFO/linear search
 Second derivative matrix not updated -- first step.
 The second derivative matrix:
                          R1
           R1           0.39139
     Eigenvalues ---    0.39139
 RFO step:  Lambda=-1.42194197D-05 EMin= 3.91394209D-01
 Linear search not attempted -- first point.
 Iteration  1 RMS(Cart)=  0.00426197 RMS(Int)=  0.00000000
 Iteration  2 RMS(Cart)=  0.00000000 RMS(Int)=  0.00000000
 ClnCor:  largest displacement from symmetrization is 1.85D-19 for atom     2.
 Variable       Old X    -DE/DX   Delta X   Delta X   Delta X     New X
                                 (Linear)    (Quad)   (Total)
    R1        1.39840   0.00236   0.00000   0.00603   0.00603   1.40442
         Item               Value     Threshold  Converged?
 Maximum Force            0.002359     0.000450     NO 
 RMS     Force            0.002359     0.000300     NO 
 Maximum Displacement     0.003014     0.001800     NO 
 RMS     Displacement     0.004262     0.001200     NO 
 Predicted change in Energy=-7.109968D-06
 GradGradGradGradGradGradGradGradGradGradGradGradGradGradGradGradGradGrad

 Leave Link  103 at Sat Aug 17 22:33:45 2024, MaxMem=   13107200 cpu:       0.0
 (Enter /programs/64bit/g09/g09-gfortran/bin/l202.exe)
                          Input orientation:                          
 ---------------------------------------------------------------------
 Center     Atomic      Atomic             Coordinates (Angstroms)
 Number     Number       Type             X           Y           Z
 ---------------------------------------------------------------------
      1          1           0        0.000000    0.000000   -0.001595
      2          1           0        0.000000    0.000000    0.741595
 ---------------------------------------------------------------------
 Stoichiometry    H2
 Framework group  D*H[C*(H.H)]
 Deg. of freedom     1
 Full point group                 D*H     NOp   8
 Largest Abelian subgroup         D2H     NOp   8
 Largest concise Abelian subgroup C2      NOp   2
                         Standard orientation:                         
 ---------------------------------------------------------------------
 Center     Atomic      Atomic             Coordinates (Angstroms)
 Number     Number       Type             X           Y           Z
 ---------------------------------------------------------------------
      1          1           0        0.000000    0.000000    0.371595
      2          1           0        0.000000    0.000000   -0.371595
 ---------------------------------------------------------------------
 Rotational constants (GHZ):      0.0000000   1815.7785466   1815.7785466
 Leave Link  202 at Sat Aug 17 22:33:45 2024, MaxMem=   13107200 cpu:       0.0
 (Enter /programs/64bit/g09/g09-gfortran/bin/l301.exe)
 Standard basis: 6-31++G (6D, 7F)
 Ernie: Thresh=  0.10000D-02 Tol=  0.10000D-05 Strict=F.
 There are     3 symmetry adapted basis functions of AG  symmetry.
 There are     0 symmetry adapted basis functions of B1G symmetry.
 There are     0 symmetry adapted basis functions of B2G symmetry.
 There are     0 symmetry adapted basis functions of B3G symmetry.
 There are     0 symmetry adapted basis functions of AU  symmetry.
 There are     3 symmetry adapted basis functions of B1U symmetry.
 There are     0 symmetry adapted basis functions of B2U symmetry.
 There are     0 symmetry adapted basis functions of B3U symmetry.
 Integral buffers will be    131072 words long.
 Raffenetti 2 integral format.
 Two-electron integral symmetry is turned on.
     6 basis functions,    10 primitive gaussians,     6 cartesian basis functions
     1 alpha electrons        1 beta electrons
       nuclear repulsion energy         0.7120353365 Hartrees.
 IExCor=  408 DFT=T Ex+Corr=B3PW91 ExCW=0 ScaHFX=  0.200000
 ScaDFX=  0.800000  0.720000  1.000000  0.810000 ScalE2=  1.000000  1.000000
 IRadAn=      0 IRanWt=     -1 IRanGd=            0 ICorTp=0
 NAtoms=    2 NActive=    2 NUniq=    1 SFac= 3.00D+00 NAtFMM=   80 NAOKFM=F Big=F
 Leave Link  301 at Sat Aug 17 22:33:45 2024, MaxMem=   13107200 cpu:       0.1
 (Enter /programs/64bit/g09/g09-gfortran/bin/l302.exe)
 NPDir=0 NMtPBC=     1 NCelOv=     1 NCel=       1 NClECP=     1 NCelD=      1
         NCelK=      1 NCelE2=     1 NClLst=     1 CellRange=     0.0.
 One-electron integrals computed using PRISM.
 One-electron integral symmetry used in STVInt
 NBasis=     6 RedAO= T  NBF=     3     0     0     0     0     3     0     0
 NBsUse=     6 1.00D-06 NBFU=     3     0     0     0     0     3     0     0
 Precomputing XC quadrature grid using
 IXCGrd= 2 IRadAn=           0 IRanWt=          -1 IRanGd=           0 AccXCQ= 1.00D-10.
 NRdTot=     128 NPtTot=       16336 NUsed=       17271 NTot=       17303
 NSgBfM=     6     6     6     6     6 NAtAll=     2     2.
 Leave Link  302 at Sat Aug 17 22:33:45 2024, MaxMem=   13107200 cpu:       0.1
 (Enter /programs/64bit/g09/g09-gfortran/bin/l303.exe)
 DipDrv:  MaxL=1.
 Leave Link  303 at Sat Aug 17 22:33:46 2024, MaxMem=   13107200 cpu:       0.0
 (Enter /programs/64bit/g09/g09-gfortran/bin/l401.exe)
 Initial guess read from the read-write file.
 B after Tr=     0.000000    0.000000    0.000000
         Rot=    1.000000    0.000000    0.000000    0.000000 Ang=   0.00 deg.
 Guess basis will be translated and rotated to current coordinates.
 Initial guess orbital symmetries:
       Occupied  (SGG)
       Virtual   (SGU) (SGG) (SGU) (SGG) (SGU)
 The electronic state of the initial guess is 1-SGG.
 Leave Link  401 at Sat Aug 17 22:33:46 2024, MaxMem=   13107200 cpu:       0.2
 (Enter /programs/64bit/g09/g09-gfortran/bin/l502.exe)
 Closed shell SCF:
 Requested convergence on RMS density matrix=1.00D-08 within 128 cycles.
 Requested convergence on MAX density matrix=1.00D-06.
 Requested convergence on             energy=1.00D-06.
 No special actions if energy rises.
 Using DIIS extrapolation, IDIIS=  1040.
 Integral symmetry usage will be decided dynamically.
        17240 words used for storage of precomputed grid.
 Keep R1 ints in memory in canonical form, NReq=878788.
 IEnd=       37025 IEndB=       37025 NGot=    13107200 MDV=    13087019
 LenX=    13087019 LenY=    13086137
 Symmetry not used in FoFDir.
 MinBra= 0 MaxBra= 0 Meth= 1.
 IRaf=       0 NMat=   1 IRICut=       1 DoRegI=T DoRafI=F ISym2E= 0 JSym2E=0.

 Cycle   1  Pass 1  IDiag  1:
 E= -1.17481996037060    
 DIIS: error= 3.71D-04 at cycle   1 NSaved=   1.
 NSaved= 1 IEnMin= 1 EnMin= -1.17481996037060     IErMin= 1 ErrMin= 3.71D-04
 ErrMax= 3.71D-04 EMaxC= 1.00D-01 BMatC= 9.73D-07 BMatP= 9.73D-07
 IDIUse=3 WtCom= 9.96D-01 WtEn= 3.71D-03
 Coeff-Com:  0.100D+01
 Coeff-En:   0.100D+01
 Coeff:      0.100D+01
 Gap=     0.463 Goal=   None    Shift=    0.000
 RMSDP=1.88D-04 MaxDP=4.74D-04              OVMax= 5.62D-04

 Cycle   2  Pass 1  IDiag  1:
 E= -1.17482152827479     Delta-E=       -0.000001567904 Rises=F Damp=F
 DIIS: error= 4.61D-05 at cycle   2 NSaved=   2.
 NSaved= 2 IEnMin= 2 EnMin= -1.17482152827479     IErMin= 2 ErrMin= 4.61D-05
 ErrMax= 4.61D-05 EMaxC= 1.00D-01 BMatC= 1.56D-08 BMatP= 9.73D-07
 IDIUse=1 WtCom= 1.00D+00 WtEn= 0.00D+00
 Coeff-Com:  0.111D+00 0.889D+00
 Coeff:      0.111D+00 0.889D+00
 Gap=     0.464 Goal=   None    Shift=    0.000
 RMSDP=2.08D-05 MaxDP=5.21D-05 DE=-1.57D-06 OVMax= 1.11D-04

 Cycle   3  Pass 1  IDiag  1:
 E= -1.17482155910698     Delta-E=       -0.000000030832 Rises=F Damp=F
 DIIS: error= 1.55D-06 at cycle   3 NSaved=   3.
 NSaved= 3 IEnMin= 3 EnMin= -1.17482155910698     IErMin= 3 ErrMin= 1.55D-06
 ErrMax= 1.55D-06 EMaxC= 1.00D-01 BMatC= 1.16D-11 BMatP= 1.56D-08
 IDIUse=1 WtCom= 1.00D+00 WtEn= 0.00D+00
 Coeff-Com: -0.107D-01-0.604D-01 0.107D+01
 Coeff:     -0.107D-01-0.604D-01 0.107D+01
 Gap=     0.464 Goal=   None    Shift=    0.000
 RMSDP=8.79D-07 MaxDP=1.65D-06 DE=-3.08D-08 OVMax= 1.87D-06

 Cycle   4  Pass 1  IDiag  1:
 E= -1.17482155912774     Delta-E=       -0.000000000021 Rises=F Damp=F
 DIIS: error= 5.70D-11 at cycle   4 NSaved=   4.
 NSaved= 4 IEnMin= 4 EnMin= -1.17482155912774     IErMin= 4 ErrMin= 5.70D-11
 ErrMax= 5.70D-11 EMaxC= 1.00D-01 BMatC= 2.31D-20 BMatP= 1.16D-11
 IDIUse=1 WtCom= 1.00D+00 WtEn= 0.00D+00
 Coeff-Com:  0.339D-07-0.107D-05-0.717D-04 0.100D+01
 Coeff:      0.339D-07-0.107D-05-0.717D-04 0.100D+01
 Gap=     0.464 Goal=   None    Shift=    0.000
 RMSDP=5.53D-11 MaxDP=8.65D-11 DE=-2.08D-11 OVMax= 2.70D-10

 SCF Done:  E(RB3PW91) =  -1.17482155913     A.U. after    4 cycles
             Convg  =    0.5534D-10             -V/T =  2.0303
 KE= 1.140243660600D+00 PE=-3.630839629064D+00 EE= 6.037390728414D-01
 Leave Link  502 at Sat Aug 17 22:33:46 2024, MaxMem=   13107200 cpu:       0.1
 (Enter /programs/64bit/g09/g09-gfortran/bin/l701.exe)
 Compute integral first derivatives.
 ... and contract with generalized density number  0.
 Leave Link  701 at Sat Aug 17 22:33:46 2024, MaxMem=   13107200 cpu:       0.1
 (Enter /programs/64bit/g09/g09-gfortran/bin/l702.exe)
 L702 exits ... SP integral derivatives will be done elsewhere.
 Leave Link  702 at Sat Aug 17 22:33:46 2024, MaxMem=   13107200 cpu:       0.0
 (Enter /programs/64bit/g09/g09-gfortran/bin/l703.exe)
 Compute integral first derivatives, UseDBF=F ICtDFT=           0.
 Integral derivatives from FoFDir, PRISM(SPDF).
 Calling FoFJK, ICntrl=      2127 FMM=F ISym2X=1 I1Cent= 0 IOpClX= 0 NMat=1 NMatS=1 NMatT=0.
 FoFCou: FMM=F IPFlag=           0 FMFlag=      100000 FMFlg1=         800
         NFxFlg=           0 DoJE=F BraDBF=F KetDBF=F FulRan=T
         Omega=  0.000000  0.000000  1.000000  0.000000  0.000000 ICntrl=    2127 IOpCl=  0
         NMat0=    1 NMatS0=    1 NMatT0=    0 NMatD0=    1 NMtDS0=    0 NMtDT0=    0
         I1Cent=           0 NGrid=           0.
 Petite list used in FoFCou.
 Leave Link  703 at Sat Aug 17 22:33:46 2024, MaxMem=   13107200 cpu:       0.1
 (Enter /programs/64bit/g09/g09-gfortran/bin/l716.exe)
 Dipole        =-6.16297582D-32 0.00000000D+00 0.00000000D+00
 ***** Axes restored to original set *****
 -------------------------------------------------------------------
 Center     Atomic                   Forces (Hartrees/Bohr)
 Number     Number              X              Y              Z
 -------------------------------------------------------------------
      1        1           0.000000000    0.000000000   -0.000070617
      2        1          -0.000000000   -0.000000000    0.000070617
 -------------------------------------------------------------------
 Cartesian Forces:  Max     0.000070617 RMS     0.000040771
 Leave Link  716 at Sat Aug 17 22:33:46 2024, MaxMem=   13107200 cpu:       0.0
 (Enter /programs/64bit/g09/g09-gfortran/bin/l103.exe)

 GradGradGradGradGradGradGradGradGradGradGradGradGradGradGradGradGradGrad
 Berny optimization.
 Using GEDIIS/GDIIS optimizer.
 Internal  Forces:  Max     0.000070617 RMS     0.000070617
 Search for a local minimum.
 Step number   2 out of a maximum of   20
 All quantities printed in internal units (Hartrees-Bohrs-Radians)
 RMS Force = .70617D-04 SwitMx=.10000D-02 MixMth= 2
 Mixed Optimization -- En-DIIS/RFO-DIIS
 Update second derivatives using D2CorX and points    1    2
 DE= -7.30D-06 DEPred=-7.11D-06 R= 1.03D+00
 SS=  1.41D+00  RLast= 6.03D-03 DXNew= 5.0454D-01 1.8082D-02
 Trust test= 1.03D+00 RLast= 6.03D-03 DXMaxT set to 3.00D-01
 The second derivative matrix:
                          R1
           R1           0.37969
 Use linear search instead of GDIIS.
     Eigenvalues ---    0.37969
 RFO step:  Lambda= 0.00000000D+00 EMin= 3.79692336D-01
 Quartic linear search produced a step of  0.03119.
 Iteration  1 RMS(Cart)=  0.00013293 RMS(Int)=  0.00000000
 Iteration  2 RMS(Cart)=  0.00000000 RMS(Int)=  0.00000000
 ClnCor:  largest displacement from symmetrization is 5.76D-21 for atom     2.
 Variable       Old X    -DE/DX   Delta X   Delta X   Delta X     New X
                                 (Linear)    (Quad)   (Total)
    R1        1.40442   0.00007   0.00019   0.00000   0.00019   1.40461
         Item               Value     Threshold  Converged?
 Maximum Force            0.000071     0.000450     YES
 RMS     Force            0.000071     0.000300     YES
 Maximum Displacement     0.000094     0.001800     YES
 RMS     Displacement     0.000133     0.001200     YES
 Predicted change in Energy=-6.566058D-09
 Optimization completed.
    -- Stationary point found.
                           ----------------------------
                           !   Optimized Parameters   !
                           ! (Angstroms and Degrees)  !
 --------------------------                            --------------------------
 ! Name  Definition              Value          Derivative Info.                !
 --------------------------------------------------------------------------------
 ! R1    R(1,2)                  0.7432         -DE/DX =    0.0001              !
 --------------------------------------------------------------------------------
 GradGradGradGradGradGradGradGradGradGradGradGradGradGradGradGradGradGrad

 Largest change from initial coordinates is atom    1       0.002 Angstoms.
 Leave Link  103 at Sat Aug 17 22:33:46 2024, MaxMem=   13107200 cpu:       0.0
 (Enter /programs/64bit/g09/g09-gfortran/bin/l202.exe)
                          Input orientation:                          
 ---------------------------------------------------------------------
 Center     Atomic      Atomic             Coordinates (Angstroms)
 Number     Number       Type             X           Y           Z
 ---------------------------------------------------------------------
      1          1           0        0.000000    0.000000   -0.001595
      2          1           0        0.000000    0.000000    0.741595
 ---------------------------------------------------------------------
 Stoichiometry    H2
 Framework group  D*H[C*(H.H)]
 Deg. of freedom     1
 Full point group                 D*H     NOp   8
 Largest Abelian subgroup         D2H     NOp   8
 Largest concise Abelian subgroup C2      NOp   2
                         Standard orientation:                         
 ---------------------------------------------------------------------
 Center     Atomic      Atomic             Coordinates (Angstroms)
 Number     Number       Type             X           Y           Z
 ---------------------------------------------------------------------
      1          1           0        0.000000    0.000000    0.371595
      2          1           0        0.000000    0.000000   -0.371595
 ---------------------------------------------------------------------
 Rotational constants (GHZ):      0.0000000   1815.7785466   1815.7785466
 Leave Link  202 at Sat Aug 17 22:33:46 2024, MaxMem=   13107200 cpu:       0.0
 (Enter /programs/64bit/g09/g09-gfortran/bin/l601.exe)
 Copying SCF densities to generalized density rwf, IOpCl= 0 IROHF=0.

 **********************************************************************

            Population analysis using the SCF density.

 **********************************************************************

 Orbital symmetries:
       Occupied  (SGG)
       Virtual   (SGU) (SGG) (SGU) (SGG) (SGU)
 The electronic state is 1-SGG.
 Alpha  occ. eigenvalues --   -0.43557
 Alpha virt. eigenvalues --    0.02820   0.04713   0.18351   0.76033   1.19602
     Molecular Orbital Coefficients:
                           1         2         3         4         5
                       (SGG)--O  (SGU)--V  (SGG)--V  (SGU)--V  (SGG)--V
     Eigenvalues --    -0.43557   0.02820   0.04713   0.18351   0.76033
   1 1   H  1S          0.33473   0.10641  -0.09687  -0.19047  -0.82273
   2        2S          0.25803   0.42616  -0.31155  -1.83330   0.95949
   3        3S          0.01179   3.12147   0.65379   3.12520  -0.36301
   4 2   H  1S          0.33473  -0.10641  -0.09687   0.19047  -0.82273
   5        2S          0.25803  -0.42616  -0.31155   1.83330   0.95949
   6        3S          0.01179  -3.12147   0.65379  -3.12520  -0.36301
                           6
                       (SGU)--V
     Eigenvalues --     1.19602
   1 1   H  1S         -1.13350
   2        2S          1.81422
   3        3S         -1.24670
   4 2   H  1S          1.13350
   5        2S         -1.81422
   6        3S          1.24670
     Density Matrix:
                           1         2         3         4         5
   1 1   H  1S          0.22409
   2        2S          0.17274   0.13316
   3        3S          0.00789   0.00608   0.00028
   4 2   H  1S          0.22409   0.17274   0.00789   0.22409
   5        2S          0.17274   0.13316   0.00608   0.17274   0.13316
   6        3S          0.00789   0.00608   0.00028   0.00789   0.00608
                           6
   6        3S          0.00028
    Full Mulliken population analysis:
                           1         2         3         4         5
   1 1   H  1S          0.22409
   2        2S          0.11372   0.13316
   3        3S          0.00213   0.00413   0.00028
   4 2   H  1S          0.10139   0.08774   0.00199   0.22409
   5        2S          0.08774   0.11358   0.00390   0.11372   0.13316
   6        3S          0.00199   0.00390   0.00027   0.00213   0.00413
                           6
   6        3S          0.00028
     Gross orbital populations:
                           1
   1 1   H  1S          0.53107
   2        2S          0.45623
   3        3S          0.01270
   4 2   H  1S          0.53107
   5        2S          0.45623
   6        3S          0.01270
          Condensed to atoms (all electrons):
              1          2
     1  H    0.597493   0.402507
     2  H    0.402507   0.597493
 Mulliken atomic charges:
              1
     1  H   -0.000000
     2  H   -0.000000
 Sum of Mulliken atomic charges =  -0.00000
 Mulliken charges with hydrogens summed into heavy atoms:
              1
 Sum of Mulliken charges with hydrogens summed into heavy atoms =  -0.00000
 Electronic spatial extent (au):  <R**2>=              5.2647
 Charge=             -0.0000 electrons
 Dipole moment (field-independent basis, Debye):
    X=             -0.0000    Y=              0.0000    Z=              0.0000  Tot=              0.0000
 Quadrupole moment (field-independent basis, Debye-Ang):
   XX=             -2.0580   YY=             -2.0580   ZZ=             -1.6387
   XY=              0.0000   XZ=             -0.0000   YZ=              0.0000
 Traceless Quadrupole moment (field-independent basis, Debye-Ang):
   XX=             -0.1398   YY=             -0.1398   ZZ=              0.2795
   XY=              0.0000   XZ=             -0.0000   YZ=              0.0000
 Octapole moment (field-independent basis, Debye-Ang**2):
  XXX=             -0.0000  YYY=              0.0000  ZZZ=              0.0000  XYY=             -0.0000
  XXY=              0.0000  XXZ=             -0.0000  XZZ=             -0.0000  YZZ=              0.0000
  YYZ=              0.0000  XYZ=              0.0000
 Hexadecapole moment (field-independent basis, Debye-Ang**3):
 XXXX=             -2.0421 YYYY=             -2.0421 ZZZZ=             -3.0424 XXXY=              0.0000
 XXXZ=              0.0000 YYYX=              0.0000 YYYZ=              0.0000 ZZZX=              0.0000
 ZZZY=              0.0000 XXYY=             -0.6807 XXZZ=             -0.8585 YYZZ=             -0.8585
 XXYZ=              0.0000 YYXZ=              0.0000 ZZXY=              0.0000
 N-N= 7.120353364947D-01 E-N=-3.630839629109D+00  KE= 1.140243660600D+00
 Symmetry AG   KE= 1.140243660600D+00
 Symmetry B1G  KE= 0.000000000000D+00
 Symmetry B2G  KE= 0.000000000000D+00
 Symmetry B3G  KE= 0.000000000000D+00
 Symmetry AU   KE= 0.000000000000D+00
 Symmetry B1U  KE= 3.116700923921D-32
 Symmetry B2U  KE= 0.000000000000D+00
 Symmetry B3U  KE= 0.000000000000D+00
 Orbital energies and kinetic energies (alpha):
                                 1                 2
   1         (SGG)--O         -0.435571          0.570122
   2         (SGU)--V          0.028202          0.158706
   3         (SGG)--V          0.047129          0.147811
   4         (SGU)--V          0.183512          0.528555
   5         (SGG)--V          0.760332          1.573401
   6         (SGU)--V          1.196023          2.576295
 Total kinetic energy from orbitals= 1.140243660600D+00
 No NMR shielding tensors so no spin-rotation constants.
 Leave Link  601 at Sat Aug 17 22:33:47 2024, MaxMem=   13107200 cpu:       0.1
 (Enter /programs/64bit/g09/g09-gfortran/bin/l9999.exe)
 B after Tr=     0.000000    0.000000    0.699199
         Rot=    0.000000   -0.000000    1.000000   -0.000000 Ang= 180.00 deg.
 Final structure in terms of initial Z-matrix:
 H
 H,1,d
      Variables:
 d=0.74318953
 1\1\GINC-MOLMOD\FOpt\RB3PW91\6-31++G\H2\OSPITE\17-Aug-2024\0\\#p b3pw9
 1/6-31++G opt freq pop=full gfinput\\hydrogen(molecule) with hf/6-31++
 G basis function\\0,1\H,0.,0.,-0.0015947661\H,0.,0.,0.7415947661\\Vers
 ion=EM64L-G09RevA.02\State=1-SGG\HF=-1.1748216\RMSD=5.534e-11\RMSF=4.0
 77e-05\Dipole=0.,0.,0.\Quadrupole=-0.1039023,-0.1039023,0.2078046,0.,0
 .,0.\PG=D*H [C*(H1.H1)]\\@


 IT'S WHAT A FELLER THINKS HE KNOWS THAT HURTS HIM...
                    ------
           KIN HUBBARD
 Leave Link 9999 at Sat Aug 17 22:33:47 2024, MaxMem=   13107200 cpu:       0.1
 Job cpu time:  0 days  0 hours  0 minutes  2.7 seconds.
 File lengths (MBytes):  RWF=      5 Int=      0 D2E=      0 Chk=      1 Scr=      1
 Normal termination of Gaussian 09 at Sat Aug 17 22:33:47 2024.
 (Enter /programs/64bit/g09/g09-gfortran/bin/l1.exe)
 Link1:  Proceeding to internal job step number  2.
 --------------------------------------------------------------------
 #P Geom=AllCheck Guess=TCheck SCRF=Check GenChk RB3PW91/6-31++G Freq
 --------------------------------------------------------------------
 1/10=4,29=7,30=1,38=1,40=1/1,3;
 2/12=2,40=1/2;
 3/5=1,6=6,7=1010,11=2,14=-4,16=1,24=10,25=1,30=1,70=2,71=2,74=-6,116=1/1,2,3;
 4/5=101/1;
 5/5=2,98=1/2;
 8/6=4,10=90,11=11/1;
 11/6=1,8=1,9=11,15=111,16=1/1,2,10;
 10/6=1/2;
 6/7=3,18=1,28=1/1;
 7/8=1,10=1,25=1/1,2,3,16;
 1/10=4,30=1/3;
 99//99;
 Leave Link    1 at Sat Aug 17 22:33:47 2024, MaxMem=   13107200 cpu:       0.1
 (Enter /programs/64bit/g09/g09-gfortran/bin/l101.exe)
 -------------------------------------------------
 hydrogen(molecule) with hf/6-31++G basis function
 -------------------------------------------------
 Redundant internal coordinates taken from checkpoint file:
 /home/ospite/Desktop/MMfP/Project6/H2/g09/DFT/B3PW91/Gau-14994.chk
 Charge =  0 Multiplicity = 1
 H,0,0.,0.,-0.0015947661
 H,0,0.,0.,0.7415947661
 Recover connectivity data from disk.
                    Isotopes and Nuclear Properties:
 (Nuclear quadrupole moments (NQMom) in fm**2, nuclear magnetic moments (NMagM)
  in nuclear magnetons)

  Atom         1           2
 IAtWgt=           1           1
 AtmWgt=   1.0078250   1.0078250
 NucSpn=           1           1
 AtZEff=  -1.0000000  -1.0000000
 NQMom=    0.0000000   0.0000000
 NMagM=    2.7928460   2.7928460
 Leave Link  101 at Sat Aug 17 22:33:47 2024, MaxMem=   13107200 cpu:       0.1
 (Enter /programs/64bit/g09/g09-gfortran/bin/l103.exe)

 GradGradGradGradGradGradGradGradGradGradGradGradGradGradGradGradGradGrad
 Berny optimization.
 Initialization pass.
                           ----------------------------
                           !    Initial Parameters    !
                           ! (Angstroms and Degrees)  !
 --------------------------                            --------------------------
 ! Name  Definition              Value          Derivative Info.                !
 --------------------------------------------------------------------------------
 ! R1    R(1,2)                  0.7432         calculate D2E/DX2 analytically  !
 --------------------------------------------------------------------------------
 Trust Radius=3.00D-01 FncErr=1.00D-07 GrdErr=1.00D-07
 Number of steps in this run=   2 maximum allowed number of steps=   2.
 GradGradGradGradGradGradGradGradGradGradGradGradGradGradGradGradGradGrad

 Leave Link  103 at Sat Aug 17 22:33:47 2024, MaxMem=   13107200 cpu:       0.0
 (Enter /programs/64bit/g09/g09-gfortran/bin/l202.exe)
                          Input orientation:                          
 ---------------------------------------------------------------------
 Center     Atomic      Atomic             Coordinates (Angstroms)
 Number     Number       Type             X           Y           Z
 ---------------------------------------------------------------------
      1          1           0        0.000000    0.000000   -0.001595
      2          1           0        0.000000    0.000000    0.741595
 ---------------------------------------------------------------------
 Stoichiometry    H2
 Framework group  D*H[C*(H.H)]
 Deg. of freedom     1
 Full point group                 D*H     NOp   8
 Largest Abelian subgroup         D2H     NOp   8
 Largest concise Abelian subgroup C2      NOp   2
                         Standard orientation:                         
 ---------------------------------------------------------------------
 Center     Atomic      Atomic             Coordinates (Angstroms)
 Number     Number       Type             X           Y           Z
 ---------------------------------------------------------------------
      1          1           0        0.000000    0.000000    0.371595
      2          1           0        0.000000    0.000000   -0.371595
 ---------------------------------------------------------------------
 Rotational constants (GHZ):      0.0000000   1815.7785466   1815.7785466
 Leave Link  202 at Sat Aug 17 22:33:47 2024, MaxMem=   13107200 cpu:       0.0
 (Enter /programs/64bit/g09/g09-gfortran/bin/l301.exe)
 Standard basis: 6-31++G (6D, 7F)
 Ernie: Thresh=  0.10000D-02 Tol=  0.10000D-05 Strict=F.
 AO basis set in the form of general basis input (Overlap normalization):
      1 0
 S   3 1.00       0.000000000000
      0.1873113696D+02  0.3349460434D-01
      0.2825394365D+01  0.2347269535D+00
      0.6401216923D+00  0.8137573261D+00
 S   1 1.00       0.000000000000
      0.1612777588D+00  0.1000000000D+01
 S   1 1.00       0.000000000000
      0.3600000000D-01  0.1000000000D+01
 ****
      2 0
 S   3 1.00       0.000000000000
      0.1873113696D+02  0.3349460434D-01
      0.2825394365D+01  0.2347269535D+00
      0.6401216923D+00  0.8137573261D+00
 S   1 1.00       0.000000000000
      0.1612777588D+00  0.1000000000D+01
 S   1 1.00       0.000000000000
      0.3600000000D-01  0.1000000000D+01
 ****

 There are     3 symmetry adapted basis functions of AG  symmetry.
 There are     0 symmetry adapted basis functions of B1G symmetry.
 There are     0 symmetry adapted basis functions of B2G symmetry.
 There are     0 symmetry adapted basis functions of B3G symmetry.
 There are     0 symmetry adapted basis functions of AU  symmetry.
 There are     3 symmetry adapted basis functions of B1U symmetry.
 There are     0 symmetry adapted basis functions of B2U symmetry.
 There are     0 symmetry adapted basis functions of B3U symmetry.
 Integral buffers will be    131072 words long.
 Raffenetti 2 integral format.
 Two-electron integral symmetry is turned on.
     6 basis functions,    10 primitive gaussians,     6 cartesian basis functions
     1 alpha electrons        1 beta electrons
       nuclear repulsion energy         0.7120353365 Hartrees.
 IExCor=  408 DFT=T Ex+Corr=B3PW91 ExCW=0 ScaHFX=  0.200000
 ScaDFX=  0.800000  0.720000  1.000000  0.810000 ScalE2=  1.000000  1.000000
 IRadAn=      0 IRanWt=     -1 IRanGd=            0 ICorTp=0
 NAtoms=    2 NActive=    2 NUniq=    1 SFac= 3.00D+00 NAtFMM=   80 NAOKFM=F Big=F
 Leave Link  301 at Sat Aug 17 22:33:47 2024, MaxMem=   13107200 cpu:       0.1
 (Enter /programs/64bit/g09/g09-gfortran/bin/l302.exe)
 NPDir=0 NMtPBC=     1 NCelOv=     1 NCel=       1 NClECP=     1 NCelD=      1
         NCelK=      1 NCelE2=     1 NClLst=     1 CellRange=     0.0.
 One-electron integrals computed using PRISM.
 One-electron integral symmetry used in STVInt
 NBasis=     6 RedAO= T  NBF=     3     0     0     0     0     3     0     0
 NBsUse=     6 1.00D-06 NBFU=     3     0     0     0     0     3     0     0
 Precomputing XC quadrature grid using
 IXCGrd= 2 IRadAn=           0 IRanWt=          -1 IRanGd=           0 AccXCQ= 1.00D-10.
 NRdTot=     128 NPtTot=       16336 NUsed=       17271 NTot=       17303
 NSgBfM=     6     6     6     6     6 NAtAll=     2     2.
 Leave Link  302 at Sat Aug 17 22:33:47 2024, MaxMem=   13107200 cpu:       0.1
 (Enter /programs/64bit/g09/g09-gfortran/bin/l303.exe)
 DipDrv:  MaxL=1.
 Leave Link  303 at Sat Aug 17 22:33:48 2024, MaxMem=   13107200 cpu:       0.0
 (Enter /programs/64bit/g09/g09-gfortran/bin/l401.exe)
 Initial guess read from the checkpoint file:  /home/ospite/Desktop/MMfP/Project6
 /H2/g09/DFT/B3PW91/Gau-14994.chk
 B after Tr=     0.000000    0.000000    0.000000
         Rot=    1.000000    0.000000    0.000000    0.000000 Ang=   0.00 deg.
 Guess basis will be translated and rotated to current coordinates.
 Initial guess orbital symmetries:
       Occupied  (SGG)
       Virtual   (SGU) (SGG) (SGU) (SGG) (SGU)
 The electronic state of the initial guess is 1-SGG.
 Leave Link  401 at Sat Aug 17 22:33:48 2024, MaxMem=   13107200 cpu:       0.2
 (Enter /programs/64bit/g09/g09-gfortran/bin/l502.exe)
 Closed shell SCF:
 Requested convergence on RMS density matrix=1.00D-08 within 128 cycles.
 Requested convergence on MAX density matrix=1.00D-06.
 Requested convergence on             energy=1.00D-06.
 No special actions if energy rises.
 Using DIIS extrapolation, IDIIS=  1040.
 Integral symmetry usage will be decided dynamically.
        17240 words used for storage of precomputed grid.
 Keep R1 ints in memory in canonical form, NReq=878788.
 IEnd=       37025 IEndB=       37025 NGot=    13107200 MDV=    13087019
 LenX=    13087019 LenY=    13086137
 Symmetry not used in FoFDir.
 MinBra= 0 MaxBra= 0 Meth= 1.
 IRaf=       0 NMat=   1 IRICut=       1 DoRegI=T DoRafI=F ISym2E= 0 JSym2E=0.

 Cycle   1  Pass 1  IDiag  1:
 E= -1.17482155912774    
 DIIS: error= 6.28D-16 at cycle   1 NSaved=   1.
 NSaved= 1 IEnMin= 1 EnMin= -1.17482155912774     IErMin= 1 ErrMin= 6.28D-16
 ErrMax= 6.28D-16 EMaxC= 1.00D-01 BMatC= 3.51D-30 BMatP= 3.51D-30
 IDIUse=1 WtCom= 1.00D+00 WtEn= 0.00D+00
 Coeff-Com:  0.100D+01
 Coeff:      0.100D+01
 Gap=     0.464 Goal=   None    Shift=    0.000
 RMSDP=4.76D-16 MaxDP=6.52D-16              OVMax= 2.66D-15

 SCF Done:  E(RB3PW91) =  -1.17482155913     A.U. after    1 cycles
             Convg  =    0.4757D-15             -V/T =  2.0303
 KE= 1.140243660600D+00 PE=-3.630839629109D+00 EE= 6.037390728861D-01
 Leave Link  502 at Sat Aug 17 22:33:48 2024, MaxMem=   13107200 cpu:       0.1
 (Enter /programs/64bit/g09/g09-gfortran/bin/l801.exe)
 Range of M.O.s used for correlation:     1     6
 NBasis=     6 NAE=     1 NBE=     1 NFC=     0 NFV=     0
 NROrb=      6 NOA=     1 NOB=     1 NVA=     5 NVB=     5
 Leave Link  801 at Sat Aug 17 22:33:48 2024, MaxMem=   13107200 cpu:       0.0
 (Enter /programs/64bit/g09/g09-gfortran/bin/l1101.exe)
 Using compressed storage, NAtomX=     2.
 Will process   3 centers per pass.
 Leave Link 1101 at Sat Aug 17 22:33:48 2024, MaxMem=   13107200 cpu:       0.1
 (Enter /programs/64bit/g09/g09-gfortran/bin/l1102.exe)
 Symmetrizing basis deriv contribution to polar:
 IMax=3 JMax=2 DiffMx= 0.00D+00
 Leave Link 1102 at Sat Aug 17 22:33:48 2024, MaxMem=   13107200 cpu:       0.0
 (Enter /programs/64bit/g09/g09-gfortran/bin/l1110.exe)
 Forming Gx(P) for the SCF density, NAtomX=     2.
 Integral derivatives from FoFDir/FoFCou, PRISM(SPDF).
 Do as many integral derivatives as possible in FoFDir.
 G2DrvN: MDV=      13107080.
 G2DrvN: will do     3 centers at a time, making    1 passes doing MaxLOS=1.
 Calling FoFCou, ICntrl=  3107 FMM=F I1Cent=   0 AccDes= 0.00D+00.
 FoFCou: FMM=F IPFlag=           0 FMFlag=      100000 FMFlg1=           0
         NFxFlg=           0 DoJE=F BraDBF=F KetDBF=F FulRan=T
         Omega=  0.000000  0.000000  1.000000  0.000000  0.000000 ICntrl=    3107 IOpCl=  0
         NMat0=    1 NMatS0=    1 NMatT0=    0 NMatD0=    1 NMtDS0=    0 NMtDT0=    0
         I1Cent=           0 NGrid=           0.
 Petite list used in FoFCou.
 FoFDir/FoFCou used for L=0 through L=1.
 End of G2Drv Frequency-dependent properties file   721 does not exist.
 End of G2Drv Frequency-dependent properties file   722 does not exist.
 Leave Link 1110 at Sat Aug 17 22:33:49 2024, MaxMem=   13107200 cpu:       0.1
 (Enter /programs/64bit/g09/g09-gfortran/bin/l1002.exe)
 Minotr:  Closed shell wavefunction.
          IDoAtm=11
          Direct CPHF calculation.
          Differentiating once with respect to electric field.
                with respect to dipole field.
          Differentiating once with respect to nuclear coordinates.
          Using symmetry in CPHF.
          Requested convergence is 1.0D-08 RMS, and 1.0D-07 maximum.
          Secondary convergence is 1.0D-12 RMS, and 1.0D-12 maximum.
          NewPWx=T KeepS1=F KeepF1=F KeepIn=T MapXYZ=F SortEE=F KeepMc=T.
          MDV=      13107176 using IRadAn=       2.
 Generate precomputed XC quadrature information.
          Keep R1 ints in memory in canonical form, NReq=801122.
 Symmetry not used in FoFDir.
 MinBra= 0 MaxBra= 0 Meth= 1.
 IRaf=       0 NMat=   1 IRICut=       1 DoRegI=T DoRafI=F ISym2E= 0 JSym2E=0.
          Solving linear equations simultaneously, MaxMat=       0.
          There are     6 degrees of freedom in the 1st order CPHF.  IDoFFX=4.
      2 vectors produced by pass  0 Test12= 8.33D-17 1.67D-08 XBig12= 3.93D+00 1.60D+00.
 AX will form     2 AO Fock derivatives at one time.
      2 vectors produced by pass  1 Test12= 8.33D-17 1.67D-08 XBig12= 9.00D-02 2.29D-01.
      1 vectors produced by pass  2 Test12= 8.33D-17 1.67D-08 XBig12= 3.52D-06 1.21D-03.
 Inverted reduced A of dimension     5 with in-core refinement.
 FullF1:  Do perturbations    1 to     6.
 Isotropic polarizability for W=    0.000000        2.29 Bohr**3.
 End of Minotr Frequency-dependent properties file   721 does not exist.
 End of Minotr Frequency-dependent properties file   722 does not exist.
 Leave Link 1002 at Sat Aug 17 22:33:49 2024, MaxMem=   13107200 cpu:       0.2
 (Enter /programs/64bit/g09/g09-gfortran/bin/l601.exe)
 Copying SCF densities to generalized density rwf, IOpCl= 0 IROHF=0.

 **********************************************************************

            Population analysis using the SCF density.

 **********************************************************************

 Orbital symmetries:
       Occupied  (SGG)
       Virtual   (SGU) (SGG) (SGU) (SGG) (SGU)
 The electronic state is 1-SGG.
 Alpha  occ. eigenvalues --   -0.43557
 Alpha virt. eigenvalues --    0.02820   0.04713   0.18351   0.76033   1.19602
     Molecular Orbital Coefficients:
                           1         2         3         4         5
                       (SGG)--O  (SGU)--V  (SGG)--V  (SGU)--V  (SGG)--V
     Eigenvalues --    -0.43557   0.02820   0.04713   0.18351   0.76033
   1 1   H  1S          0.33473   0.10641  -0.09687  -0.19047  -0.82273
   2        2S          0.25803   0.42616  -0.31155  -1.83330   0.95949
   3        3S          0.01179   3.12147   0.65379   3.12520  -0.36301
   4 2   H  1S          0.33473  -0.10641  -0.09687   0.19047  -0.82273
   5        2S          0.25803  -0.42616  -0.31155   1.83330   0.95949
   6        3S          0.01179  -3.12147   0.65379  -3.12520  -0.36301
                           6
                       (SGU)--V
     Eigenvalues --     1.19602
   1 1   H  1S         -1.13350
   2        2S          1.81422
   3        3S         -1.24670
   4 2   H  1S          1.13350
   5        2S         -1.81422
   6        3S          1.24670
     Density Matrix:
                           1         2         3         4         5
   1 1   H  1S          0.22409
   2        2S          0.17274   0.13316
   3        3S          0.00789   0.00608   0.00028
   4 2   H  1S          0.22409   0.17274   0.00789   0.22409
   5        2S          0.17274   0.13316   0.00608   0.17274   0.13316
   6        3S          0.00789   0.00608   0.00028   0.00789   0.00608
                           6
   6        3S          0.00028
    Full Mulliken population analysis:
                           1         2         3         4         5
   1 1   H  1S          0.22409
   2        2S          0.11372   0.13316
   3        3S          0.00213   0.00413   0.00028
   4 2   H  1S          0.10139   0.08774   0.00199   0.22409
   5        2S          0.08774   0.11358   0.00390   0.11372   0.13316
   6        3S          0.00199   0.00390   0.00027   0.00213   0.00413
                           6
   6        3S          0.00028
     Gross orbital populations:
                           1
   1 1   H  1S          0.53107
   2        2S          0.45623
   3        3S          0.01270
   4 2   H  1S          0.53107
   5        2S          0.45623
   6        3S          0.01270
          Condensed to atoms (all electrons):
              1          2
     1  H    0.597493   0.402507
     2  H    0.402507   0.597493
 Mulliken atomic charges:
              1
     1  H    0.000000
     2  H    0.000000
 Sum of Mulliken atomic charges =   0.00000
 Mulliken charges with hydrogens summed into heavy atoms:
              1
 Sum of Mulliken charges with hydrogens summed into heavy atoms =   0.00000
 APT atomic charges:
              1
     1  H   -0.000000
     2  H   -0.000000
 Sum of APT charges=  -0.00000
 APT Atomic charges with hydrogens summed into heavy atoms:
              1
     1  H   -0.000000
     2  H   -0.000000
 Sum of APT charges=  -0.00000
 Electronic spatial extent (au):  <R**2>=              5.2647
 Charge=              0.0000 electrons
 Dipole moment (field-independent basis, Debye):
    X=              0.0000    Y=              0.0000    Z=              0.0000  Tot=              0.0000
 Quadrupole moment (field-independent basis, Debye-Ang):
   XX=             -2.0580   YY=             -2.0580   ZZ=             -1.6387
   XY=              0.0000   XZ=             -0.0000   YZ=              0.0000
 Traceless Quadrupole moment (field-independent basis, Debye-Ang):
   XX=             -0.1398   YY=             -0.1398   ZZ=              0.2795
   XY=              0.0000   XZ=             -0.0000   YZ=              0.0000
 Octapole moment (field-independent basis, Debye-Ang**2):
  XXX=             -0.0000  YYY=              0.0000  ZZZ=              0.0000  XYY=             -0.0000
  XXY=              0.0000  XXZ=             -0.0000  XZZ=             -0.0000  YZZ=              0.0000
  YYZ=              0.0000  XYZ=              0.0000
 Hexadecapole moment (field-independent basis, Debye-Ang**3):
 XXXX=             -2.0421 YYYY=             -2.0421 ZZZZ=             -3.0424 XXXY=              0.0000
 XXXZ=              0.0000 YYYX=              0.0000 YYYZ=              0.0000 ZZZX=              0.0000
 ZZZY=              0.0000 XXYY=             -0.6807 XXZZ=             -0.8585 YYZZ=             -0.8585
 XXYZ=              0.0000 YYXZ=              0.0000 ZZXY=              0.0000
 N-N= 7.120353364947D-01 E-N=-3.630839629109D+00  KE= 1.140243660600D+00
 Symmetry AG   KE= 1.140243660600D+00
 Symmetry B1G  KE= 0.000000000000D+00
 Symmetry B2G  KE= 0.000000000000D+00
 Symmetry B3G  KE= 0.000000000000D+00
 Symmetry AU   KE= 0.000000000000D+00
 Symmetry B1U  KE= 2.715089866522D-32
 Symmetry B2U  KE= 0.000000000000D+00
 Symmetry B3U  KE= 0.000000000000D+00
 Orbital energies and kinetic energies (alpha):
                                 1                 2
   1         (SGG)--O         -0.435571          0.570122
   2         (SGU)--V          0.028202          0.158706
   3         (SGG)--V          0.047129          0.147811
   4         (SGU)--V          0.183512          0.528555
   5         (SGG)--V          0.760332          1.573401
   6         (SGU)--V          1.196023          2.576295
 Total kinetic energy from orbitals= 1.140243660600D+00
  Exact polarizability:   0.000   0.000   0.000  -0.000   0.000   6.872
 Approx polarizability:   0.000  -0.000  -0.000  -0.000  -0.000   8.171
 No NMR shielding tensors so no spin-rotation constants.
 Leave Link  601 at Sat Aug 17 22:33:49 2024, MaxMem=   13107200 cpu:       0.1
 (Enter /programs/64bit/g09/g09-gfortran/bin/l701.exe)
 Compute integral second derivatives.
 ... and contract with generalized density number  0.
 Leave Link  701 at Sat Aug 17 22:33:49 2024, MaxMem=   13107200 cpu:       0.1
 (Enter /programs/64bit/g09/g09-gfortran/bin/l702.exe)
 L702 exits ... SP integral derivatives will be done elsewhere.
 Leave Link  702 at Sat Aug 17 22:33:49 2024, MaxMem=   13107200 cpu:       0.0
 (Enter /programs/64bit/g09/g09-gfortran/bin/l703.exe)
 Compute integral second derivatives, UseDBF=F ICtDFT=           0.
 Integral derivatives from FoFDir, PRISM(SPDF).
 Calling FoFJK, ICntrl=    100127 FMM=F ISym2X=1 I1Cent= 0 IOpClX= 0 NMat=1 NMatS=1 NMatT=0.
 FoFCou: FMM=F IPFlag=           0 FMFlag=      100000 FMFlg1=         800
         NFxFlg=           0 DoJE=F BraDBF=F KetDBF=F FulRan=T
         Omega=  0.000000  0.000000  1.000000  0.000000  0.000000 ICntrl=  100127 IOpCl=  0
         NMat0=    1 NMatS0=    1 NMatT0=    0 NMatD0=    1 NMtDS0=    0 NMtDT0=    0
         I1Cent=           0 NGrid=           0.
 Petite list used in FoFCou.
 Leave Link  703 at Sat Aug 17 22:33:49 2024, MaxMem=   13107200 cpu:       0.1
 (Enter /programs/64bit/g09/g09-gfortran/bin/l716.exe)
 Dipole        = 2.46519033D-32 0.00000000D+00-1.59296404D-16
 Polarizability= 2.57651503D-32 0.00000000D+00 0.00000000D+00
                -4.20776837D-16 0.00000000D+00 6.87180724D+00
 Full mass-weighted force constant matrix:
 Low frequencies ---  -54.2519  -54.2519   -0.0001   -0.0001    0.0003 4438.9817
 Diagonal vibrational polarizability:
        0.0000000       0.0000000       0.0000000
 Harmonic frequencies (cm**-1), IR intensities (KM/Mole), Raman scattering
 activities (A**4/AMU), depolarization ratios for plane and unpolarized
 incident light, reduced masses (AMU), force constants (mDyne/A),
 and normal coordinates:
                     1
                    SGG
 Frequencies --  4438.9817
 Red. masses --     1.0078
 Frc consts  --    11.7004
 IR Inten    --     0.0000
  Atom  AN      X      Y      Z
     1   1    -0.00   0.00   0.71
     2   1     0.00   0.00  -0.71

 -------------------
 - Thermochemistry -
 -------------------
 Temperature   298.150 Kelvin.  Pressure   1.00000 Atm.
 Atom     1 has atomic number  1 and mass   1.00783
 Atom     2 has atomic number  1 and mass   1.00783
 Molecular mass:     2.01565 amu.
 Principal axes and moments of inertia in atomic units:
                           1         2         3
     Eigenvalues --     0.00000   0.99392   0.99392
           X           -0.00000   1.00000  -0.00000
           Y            0.00000   0.00000   1.00000
           Z            1.00000   0.00000  -0.00000
 This molecule is a prolate symmetric top.
 Rotational symmetry number  2.
 Rotational temperature (Kelvin)     87.14352
 Rotational constant (GHZ):        1815.778547
 Zero-point vibrational energy      26551.0 (Joules/Mol)
                                    6.34584 (Kcal/Mol)
 Vibrational temperatures:   6386.70
          (Kelvin)
 
 Zero-point correction=                           0.010113 (Hartree/Particle)
 Thermal correction to Energy=                    0.012473
 Thermal correction to Enthalpy=                  0.013417
 Thermal correction to Gibbs Free Energy=        -0.001376
 Sum of electronic and zero-point Energies=             -1.164709
 Sum of electronic and thermal Energies=                -1.162348
 Sum of electronic and thermal Enthalpies=              -1.161404
 Sum of electronic and thermal Free Energies=           -1.176197
 
                     E (Thermal)             CV                S
                      KCal/Mol        Cal/Mol-Kelvin    Cal/Mol-Kelvin
 Total                    7.827              4.968             31.134
 Electronic               0.000              0.000              0.000
 Translational            0.889              2.981             28.080
 Rotational               0.592              1.987              3.054
 Vibrational              6.346              0.000              0.000
                       Q            Log10(Q)             Ln(Q)
 Total Bot       0.429258D+01          0.632718          1.456887
 Total V=0       0.192419D+06          5.284248         12.167430
 Vib (Bot)       0.223085D-04         -4.651530        -10.710543
 Vib (V=0)       0.100000D+01          0.000000          0.000000
 Electronic      0.100000D+01          0.000000          0.000000
 Translational   0.112481D+06          5.051078         11.630537
 Rotational      0.171068D+01          0.233170          0.536893
 ***** Axes restored to original set *****
 -------------------------------------------------------------------
 Center     Atomic                   Forces (Hartrees/Bohr)
 Number     Number              X              Y              Z
 -------------------------------------------------------------------
      1        1           0.000000000    0.000000000   -0.000070617
      2        1          -0.000000000   -0.000000000    0.000070617
 -------------------------------------------------------------------
 Cartesian Forces:  Max     0.000070617 RMS     0.000040771
 Force constants in Cartesian coordinates: 
                1             2             3             4             5 
      1 -0.561276D-04
      2  0.000000D+00 -0.561276D-04
      3  0.000000D+00  0.000000D+00  0.375762D+00
      4  0.561276D-04  0.000000D+00  0.000000D+00 -0.561276D-04
      5  0.000000D+00  0.561276D-04  0.000000D+00  0.000000D+00 -0.561276D-04
      6  0.000000D+00  0.000000D+00 -0.375762D+00  0.000000D+00  0.000000D+00
                6 
      6  0.375762D+00
 Force constants in internal coordinates: 
                1 
      1  0.375762D+00
 Leave Link  716 at Sat Aug 17 22:33:49 2024, MaxMem=   13107200 cpu:       0.0
 (Enter /programs/64bit/g09/g09-gfortran/bin/l103.exe)

 GradGradGradGradGradGradGradGradGradGradGradGradGradGradGradGradGradGrad
 Berny optimization.
 Internal  Forces:  Max     0.000070617 RMS     0.000070617
 Search for a local minimum.
 Step number   1 out of a maximum of    2
 All quantities printed in internal units (Hartrees-Bohrs-Radians)
 Second derivative matrix not updated -- analytic derivatives used.
 The second derivative matrix:
                          R1
           R1           0.37576
     Eigenvalues ---    0.37576
 Angle between quadratic step and forces=   0.00 degrees.
 Linear search not attempted -- first point.
 Iteration  1 RMS(Cart)=  0.00013289 RMS(Int)=  0.00000000
 Iteration  2 RMS(Cart)=  0.00000000 RMS(Int)=  0.00000000
 ClnCor:  largest displacement from symmetrization is 5.75D-21 for atom     1.
 Variable       Old X    -DE/DX   Delta X   Delta X   Delta X     New X
                                 (Linear)    (Quad)   (Total)
    R1        1.40442   0.00007   0.00000   0.00019   0.00019   1.40461
         Item               Value     Threshold  Converged?
 Maximum Force            0.000071     0.000450     YES
 RMS     Force            0.000071     0.000300     YES
 Maximum Displacement     0.000094     0.001800     YES
 RMS     Displacement     0.000133     0.001200     YES
 Predicted change in Energy=-6.635504D-09
 Optimization completed.
    -- Stationary point found.
                           ----------------------------
                           !   Optimized Parameters   !
                           ! (Angstroms and Degrees)  !
 --------------------------                            --------------------------
 ! Name  Definition              Value          Derivative Info.                !
 --------------------------------------------------------------------------------
 ! R1    R(1,2)                  0.7432         -DE/DX =    0.0001              !
 --------------------------------------------------------------------------------
 GradGradGradGradGradGradGradGradGradGradGradGradGradGradGradGradGradGrad

 Leave Link  103 at Sat Aug 17 22:33:49 2024, MaxMem=   13107200 cpu:       0.0
 (Enter /programs/64bit/g09/g09-gfortran/bin/l9999.exe)
 1\1\GINC-MOLMOD\Freq\RB3PW91\6-31++G\H2\OSPITE\17-Aug-2024\0\\#P Geom=
 AllCheck Guess=TCheck SCRF=Check GenChk RB3PW91/6-31++G Freq\\hydrogen
 (molecule) with hf/6-31++G basis function\\0,1\H,0.,0.,-0.0015947661\H
 ,0.,0.,0.7415947661\\Version=EM64L-G09RevA.02\State=1-SGG\HF=-1.174821
 6\RMSD=4.757e-16\RMSF=4.077e-05\ZeroPoint=0.0101127\Thermal=0.0124732\
 Dipole=0.,0.,0.\DipoleDeriv=0.,0.,0.,0.,0.,0.,0.,0.,0.,0.,0.,0.,0.,0.,
 0.,0.,0.,0.\Polar=0.,0.,0.,0.,0.,6.8718072\PG=D*H [C*(H1.H1)]\NImag=0\
 \-0.00005613,0.,-0.00005613,0.,0.,0.37576239,0.00005613,0.,0.,-0.00005
 613,0.,0.00005613,0.,0.,-0.00005613,0.,0.,-0.37576239,0.,0.,0.37576239
 \\0.,0.,0.00007062,0.,0.,-0.00007062\\\@


 THERE ARE PEOPLE SO ADDICTED TO EXAGERATING THEY
 CAN'T TELL THE TRUTH WITHOUT LYING. -- FORTUNE COOKIE
 Job cpu time:  0 days  0 hours  0 minutes  2.0 seconds.
 File lengths (MBytes):  RWF=      5 Int=      0 D2E=      0 Chk=      1 Scr=      1
 Normal termination of Gaussian 09 at Sat Aug 17 22:33:50 2024.
