 Entering Gaussian System, Link 0=/programs/64bit/g09/g09-gfortran/bin/g09
 Input=h2_aug-cc-pVDZ.com
 Output=h2_aug-cc-pVDZ.log
 Initial command:
 /programs/64bit/g09/g09-gfortran/bin/l1.exe /home/ospite/Desktop/MMfP/Project6/H2/g09/DFT/B3PW91/Gau-15067.inp -scrdir=/home/ospite/Desktop/MMfP/Project6/H2/g09/DFT/B3PW91/
 Entering Link 1 = /programs/64bit/g09/g09-gfortran/bin/l1.exe PID=     15069.
  
 Copyright (c) 1988,1990,1992,1993,1995,1998,2003,2009, Gaussian, Inc.
                  All Rights Reserved.
  
 This is part of the Gaussian(R) 09 program.  It is based on
 the Gaussian(R) 03 system (copyright 2003, Gaussian, Inc.),
 the Gaussian(R) 98 system (copyright 1998, Gaussian, Inc.),
 the Gaussian(R) 94 system (copyright 1995, Gaussian, Inc.),
 the Gaussian 92(TM) system (copyright 1992, Gaussian, Inc.),
 the Gaussian 90(TM) system (copyright 1990, Gaussian, Inc.),
 the Gaussian 88(TM) system (copyright 1988, Gaussian, Inc.),
 the Gaussian 86(TM) system (copyright 1986, Carnegie Mellon
 University), and the Gaussian 82(TM) system (copyright 1983,
 Carnegie Mellon University). Gaussian is a federally registered
 trademark of Gaussian, Inc.
  
 This software contains proprietary and confidential information,
 including trade secrets, belonging to Gaussian, Inc.
  
 This software is provided under written license and may be
 used, copied, transmitted, or stored only in accord with that
 written license.
  
 The following legend is applicable only to US Government
 contracts under FAR:
  
                    RESTRICTED RIGHTS LEGEND
  
 Use, reproduction and disclosure by the US Government is
 subject to restrictions as set forth in subparagraphs (a)
 and (c) of the Commercial Computer Software - Restricted
 Rights clause in FAR 52.227-19.
  
 Gaussian, Inc.
 340 Quinnipiac St., Bldg. 40, Wallingford CT 06492
  
  
 ---------------------------------------------------------------
 Warning -- This program may not be used in any manner that
 competes with the business of Gaussian, Inc. or will provide
 assistance to any competitor of Gaussian, Inc.  The licensee
 of this program is prohibited from giving any competitor of
 Gaussian, Inc. access to this program.  By using this program,
 the user acknowledges that Gaussian, Inc. is engaged in the
 business of creating and licensing software in the field of
 computational chemistry and represents and warrants to the
 licensee that it is not a competitor of Gaussian, Inc. and that
 it will not use this program in any manner prohibited above.
 ---------------------------------------------------------------
  

 Cite this work as:
 Gaussian 09, Revision A.02,
 M. J. Frisch, G. W. Trucks, H. B. Schlegel, G. E. Scuseria, 
 M. A. Robb, J. R. Cheeseman, G. Scalmani, V. Barone, B. Mennucci, 
 G. A. Petersson, H. Nakatsuji, M. Caricato, X. Li, H. P. Hratchian, 
 A. F. Izmaylov, J. Bloino, G. Zheng, J. L. Sonnenberg, M. Hada, 
 M. Ehara, K. Toyota, R. Fukuda, J. Hasegawa, M. Ishida, T. Nakajima, 
 Y. Honda, O. Kitao, H. Nakai, T. Vreven, J. A. Montgomery, Jr., 
 J. E. Peralta, F. Ogliaro, M. Bearpark, J. J. Heyd, E. Brothers, 
 K. N. Kudin, V. N. Staroverov, R. Kobayashi, J. Normand, 
 K. Raghavachari, A. Rendell, J. C. Burant, S. S. Iyengar, J. Tomasi, 
 M. Cossi, N. Rega, J. M. Millam, M. Klene, J. E. Knox, J. B. Cross, 
 V. Bakken, C. Adamo, J. Jaramillo, R. Gomperts, R. E. Stratmann, 
 O. Yazyev, A. J. Austin, R. Cammi, C. Pomelli, J. W. Ochterski, 
 R. L. Martin, K. Morokuma, V. G. Zakrzewski, G. A. Voth, 
 P. Salvador, J. J. Dannenberg, S. Dapprich, A. D. Daniels, 
 O. Farkas, J. B. Foresman, J. V. Ortiz, J. Cioslowski, 
 and D. J. Fox, Gaussian, Inc., Wallingford CT, 2009.
 
 ******************************************
 Gaussian 09:  EM64L-G09RevA.02 11-Jun-2009
                17-Aug-2024 
 ******************************************
 %mem=100MB
 -----------------------------------------------
 #p b3pw91/aug-cc-pVDZ opt freq pop=full gfinput
 -----------------------------------------------
 1/14=-1,18=20,19=15,26=3,38=1/1,3;
 2/9=110,12=2,17=6,18=5,40=1/2;
 3/5=16,7=10,11=2,16=1,24=10,25=1,30=1,71=1,74=-6/1,2,3;
 4//1;
 5/5=2,38=5/2;
 6/7=3,28=1/1;
 7//1,2,3,16;
 1/14=-1,18=20,19=15/3(2);
 2/9=110/2;
 99//99;
 2/9=110/2;
 3/5=16,7=10,11=2,16=1,25=1,30=1,71=1,74=-6/1,2,3;
 4/5=5,16=3/1;
 5/5=2,38=5/2;
 7//1,2,3,16;
 1/14=-1,18=20,19=15/3(-5);
 2/9=110/2;
 6/7=3,19=2,28=1/1;
 99/9=1/99;
 Leave Link    1 at Sat Aug 17 22:35:18 2024, MaxMem=   13107200 cpu:       0.1
 (Enter /programs/64bit/g09/g09-gfortran/bin/l101.exe)
 --------------------------------------------------------
 hydrogen (moldecule) with and aug-cc-pVDZ basis function
 --------------------------------------------------------
 Symbolic Z-matrix:
 Charge =  0 Multiplicity = 1
 H1
 H2                   1    d
       Variables:
  d                     0.74                     
 
 NAtoms=      2 NQM=      2 NQMF=      0 NMic=      0 NMicF=      0 NTot=      2.
                    Isotopes and Nuclear Properties:
 (Nuclear quadrupole moments (NQMom) in fm**2, nuclear magnetic moments (NMagM)
  in nuclear magnetons)

  Atom         1           2
 IAtWgt=           1           1
 AtmWgt=   1.0078250   1.0078250
 NucSpn=           1           1
 AtZEff=   0.0000000   0.0000000
 NQMom=    0.0000000   0.0000000
 NMagM=    2.7928460   2.7928460
 Leave Link  101 at Sat Aug 17 22:35:18 2024, MaxMem=   13107200 cpu:       0.1
 (Enter /programs/64bit/g09/g09-gfortran/bin/l103.exe)

 GradGradGradGradGradGradGradGradGradGradGradGradGradGradGradGradGradGrad
 Berny optimization.
 Initialization pass.
                           ----------------------------
                           !    Initial Parameters    !
                           ! (Angstroms and Degrees)  !
 --------------------------                            --------------------------
 ! Name  Definition              Value          Derivative Info.                !
 --------------------------------------------------------------------------------
 ! R1    R(1,2)                  0.74           estimate D2E/DX2                !
 --------------------------------------------------------------------------------
 Trust Radius=3.00D-01 FncErr=1.00D-07 GrdErr=1.00D-06
 Number of steps in this run=  20 maximum allowed number of steps= 100.
 GradGradGradGradGradGradGradGradGradGradGradGradGradGradGradGradGradGrad

 Leave Link  103 at Sat Aug 17 22:35:18 2024, MaxMem=   13107200 cpu:       0.0
 (Enter /programs/64bit/g09/g09-gfortran/bin/l202.exe)
                          Input orientation:                          
 ---------------------------------------------------------------------
 Center     Atomic      Atomic             Coordinates (Angstroms)
 Number     Number       Type             X           Y           Z
 ---------------------------------------------------------------------
      1          1           0        0.000000    0.000000    0.000000
      2          1           0        0.000000    0.000000    0.740000
 ---------------------------------------------------------------------
 Stoichiometry    H2
 Framework group  D*H[C*(H.H)]
 Deg. of freedom     1
 Full point group                 D*H     NOp   8
 Largest Abelian subgroup         D2H     NOp   8
 Largest concise Abelian subgroup C2      NOp   2
                         Standard orientation:                         
 ---------------------------------------------------------------------
 Center     Atomic      Atomic             Coordinates (Angstroms)
 Number     Number       Type             X           Y           Z
 ---------------------------------------------------------------------
      1          1           0        0.000000    0.000000    0.370000
      2          1           0        0.000000    0.000000   -0.370000
 ---------------------------------------------------------------------
 Rotational constants (GHZ):      0.0000000   1831.4649389   1831.4649389
 Leave Link  202 at Sat Aug 17 22:35:18 2024, MaxMem=   13107200 cpu:       0.0
 (Enter /programs/64bit/g09/g09-gfortran/bin/l301.exe)
 Standard basis: Aug-CC-pVDZ (5D, 7F)
 Ernie: Thresh=  0.10000D-02 Tol=  0.10000D-05 Strict=F.
 AO basis set in the form of general basis input (Overlap normalization):
      1 0
 S   3 1.00       0.000000000000
      0.1301000000D+02  0.3349872639D-01
      0.1962000000D+01  0.2348008012D+00
      0.4446000000D+00  0.8136829579D+00
 S   1 1.00       0.000000000000
      0.1220000000D+00  0.1000000000D+01
 S   1 1.00       0.000000000000
      0.2974000000D-01  0.1000000000D+01
 P   1 1.00       0.000000000000
      0.7270000000D+00  0.1000000000D+01
 P   1 1.00       0.000000000000
      0.1410000000D+00  0.1000000000D+01
 ****
      2 0
 S   3 1.00       0.000000000000
      0.1301000000D+02  0.3349872639D-01
      0.1962000000D+01  0.2348008012D+00
      0.4446000000D+00  0.8136829579D+00
 S   1 1.00       0.000000000000
      0.1220000000D+00  0.1000000000D+01
 S   1 1.00       0.000000000000
      0.2974000000D-01  0.1000000000D+01
 P   1 1.00       0.000000000000
      0.7270000000D+00  0.1000000000D+01
 P   1 1.00       0.000000000000
      0.1410000000D+00  0.1000000000D+01
 ****

 There are     5 symmetry adapted basis functions of AG  symmetry.
 There are     0 symmetry adapted basis functions of B1G symmetry.
 There are     2 symmetry adapted basis functions of B2G symmetry.
 There are     2 symmetry adapted basis functions of B3G symmetry.
 There are     0 symmetry adapted basis functions of AU  symmetry.
 There are     5 symmetry adapted basis functions of B1U symmetry.
 There are     2 symmetry adapted basis functions of B2U symmetry.
 There are     2 symmetry adapted basis functions of B3U symmetry.
 Integral buffers will be    131072 words long.
 Raffenetti 2 integral format.
 Two-electron integral symmetry is turned on.
    18 basis functions,    22 primitive gaussians,    18 cartesian basis functions
     1 alpha electrons        1 beta electrons
       nuclear repulsion energy         0.7151043359 Hartrees.
 IExCor=  408 DFT=T Ex+Corr=B3PW91 ExCW=0 ScaHFX=  0.200000
 ScaDFX=  0.800000  0.720000  1.000000  0.810000 ScalE2=  1.000000  1.000000
 IRadAn=      0 IRanWt=     -1 IRanGd=            0 ICorTp=0
 NAtoms=    2 NActive=    2 NUniq=    1 SFac= 3.00D+00 NAtFMM=   80 NAOKFM=F Big=F
 Leave Link  301 at Sat Aug 17 22:35:18 2024, MaxMem=   13107200 cpu:       0.1
 (Enter /programs/64bit/g09/g09-gfortran/bin/l302.exe)
 NPDir=0 NMtPBC=     1 NCelOv=     1 NCel=       1 NClECP=     1 NCelD=      1
         NCelK=      1 NCelE2=     1 NClLst=     1 CellRange=     0.0.
 One-electron integrals computed using PRISM.
 One-electron integral symmetry used in STVInt
 NBasis=    18 RedAO= T  NBF=     5     0     2     2     0     5     2     2
 NBsUse=    18 1.00D-06 NBFU=     5     0     2     2     0     5     2     2
 Precomputing XC quadrature grid using
 IXCGrd= 2 IRadAn=           0 IRanWt=          -1 IRanGd=           0 AccXCQ= 1.00D-10.
 NRdTot=     128 NPtTot=       16336 NUsed=       17271 NTot=       17303
 NSgBfM=    18    18    18    18    18 NAtAll=     2     2.
 Leave Link  302 at Sat Aug 17 22:35:19 2024, MaxMem=   13107200 cpu:       0.2
 (Enter /programs/64bit/g09/g09-gfortran/bin/l303.exe)
 DipDrv:  MaxL=1.
 Leave Link  303 at Sat Aug 17 22:35:19 2024, MaxMem=   13107200 cpu:       0.0
 (Enter /programs/64bit/g09/g09-gfortran/bin/l401.exe)
 Harris functional with IExCor=  408 diagonalized for initial guess.
 ExpMin= 2.97D-02 ExpMax= 1.30D+01 ExpMxC= 1.30D+01 IAcc=3 IRadAn=         0 AccDes= 0.00D+00
 HarFok:  IExCor=  408 AccDes= 0.00D+00 IRadAn=         0 IDoV= 1
 ScaDFX=  1.000000  1.000000  1.000000  1.000000
 FoFCou: FMM=F IPFlag=           0 FMFlag=      100000 FMFlg1=           0
         NFxFlg=           0 DoJE=T BraDBF=F KetDBF=T FulRan=T
         Omega=  0.000000  0.000000  1.000000  0.000000  0.000000 ICntrl=     500 IOpCl=  0
         NMat0=    1 NMatS0=    1 NMatT0=    0 NMatD0=    1 NMtDS0=    0 NMtDT0=    0
         I1Cent=           4 NGrid=           0.
 Petite list used in FoFCou.
 Harris En= -1.18539916695687    
 Initial guess orbital symmetries:
       Occupied  (SGG)
       Virtual   (SGU) (SGG) (SGU) (PIU) (PIU) (SGG) (PIG) (PIG)
                 (SGU) (SGG) (SGU) (PIU) (PIU) (SGG) (PIG) (PIG)
                 (SGU)
 The electronic state of the initial guess is 1-SGG.
 Leave Link  401 at Sat Aug 17 22:35:19 2024, MaxMem=   13107200 cpu:       0.2
 (Enter /programs/64bit/g09/g09-gfortran/bin/l502.exe)
 Closed shell SCF:
 Requested convergence on RMS density matrix=1.00D-08 within 128 cycles.
 Requested convergence on MAX density matrix=1.00D-06.
 Requested convergence on             energy=1.00D-06.
 No special actions if energy rises.
 Using DIIS extrapolation, IDIIS=  1040.
 Integral symmetry usage will be decided dynamically.
        17240 words used for storage of precomputed grid.
 Keep R1 ints in memory in canonical form, NReq=909671.
 IEnd=       37081 IEndB=       37081 NGot=    13107200 MDV=    13072488
 LenX=    13072488 LenY=    13071606
 Symmetry not used in FoFDir.
 MinBra= 0 MaxBra= 1 Meth= 1.
 IRaf=       0 NMat=   1 IRICut=       1 DoRegI=T DoRafI=F ISym2E= 0 JSym2E=0.

 Cycle   1  Pass 1  IDiag  1:
 E= -1.17009809860091    
 DIIS: error= 1.63D-02 at cycle   1 NSaved=   1.
 NSaved= 1 IEnMin= 1 EnMin= -1.17009809860091     IErMin= 1 ErrMin= 1.63D-02
 ErrMax= 1.63D-02 EMaxC= 1.00D-01 BMatC= 1.92D-03 BMatP= 1.92D-03
 IDIUse=3 WtCom= 8.37D-01 WtEn= 1.63D-01
 Coeff-Com:  0.100D+01
 Coeff-En:   0.100D+01
 Coeff:      0.100D+01
 Gap=     0.443 Goal=   None    Shift=    0.000
 GapD=    0.443 DampG=2.000 DampE=0.500 DampFc=1.0000 IDamp=-1.
 RMSDP=3.54D-03 MaxDP=2.69D-02              OVMax= 5.38D-02

 Cycle   2  Pass 1  IDiag  1:
 E= -1.17382904142782     Delta-E=       -0.003730942827 Rises=F Damp=F
 DIIS: error= 2.90D-03 at cycle   2 NSaved=   2.
 NSaved= 2 IEnMin= 2 EnMin= -1.17382904142782     IErMin= 2 ErrMin= 2.90D-03
 ErrMax= 2.90D-03 EMaxC= 1.00D-01 BMatC= 5.27D-05 BMatP= 1.92D-03
 IDIUse=3 WtCom= 9.71D-01 WtEn= 2.90D-02
 Coeff-Com:  0.140D+00 0.860D+00
 Coeff-En:   0.000D+00 0.100D+01
 Coeff:      0.136D+00 0.864D+00
 Gap=     0.454 Goal=   None    Shift=    0.000
 RMSDP=4.15D-04 MaxDP=3.05D-03 DE=-3.73D-03 OVMax= 7.21D-03

 Cycle   3  Pass 1  IDiag  1:
 E= -1.17392417350959     Delta-E=       -0.000095132082 Rises=F Damp=F
 DIIS: error= 3.81D-05 at cycle   3 NSaved=   3.
 NSaved= 3 IEnMin= 3 EnMin= -1.17392417350959     IErMin= 3 ErrMin= 3.81D-05
 ErrMax= 3.81D-05 EMaxC= 1.00D-01 BMatC= 7.84D-09 BMatP= 5.27D-05
 IDIUse=1 WtCom= 1.00D+00 WtEn= 0.00D+00
 Coeff-Com: -0.931D-02-0.517D-01 0.106D+01
 Coeff:     -0.931D-02-0.517D-01 0.106D+01
 Gap=     0.454 Goal=   None    Shift=    0.000
 RMSDP=8.65D-06 MaxDP=5.83D-05 DE=-9.51D-05 OVMax= 7.75D-05

 Cycle   4  Pass 1  IDiag  1:
 E= -1.17392418753647     Delta-E=       -0.000000014027 Rises=F Damp=F
 DIIS: error= 1.02D-06 at cycle   4 NSaved=   4.
 NSaved= 4 IEnMin= 4 EnMin= -1.17392418753647     IErMin= 4 ErrMin= 1.02D-06
 ErrMax= 1.02D-06 EMaxC= 1.00D-01 BMatC= 6.48D-12 BMatP= 7.84D-09
 IDIUse=1 WtCom= 1.00D+00 WtEn= 0.00D+00
 Coeff-Com:  0.106D-02 0.585D-02-0.122D+00 0.112D+01
 Coeff:      0.106D-02 0.585D-02-0.122D+00 0.112D+01
 Gap=     0.454 Goal=   None    Shift=    0.000
 RMSDP=3.88D-07 MaxDP=2.15D-06 DE=-1.40D-08 OVMax= 3.52D-06

 Cycle   5  Pass 1  IDiag  1:
 E= -1.17392418755376     Delta-E=       -0.000000000017 Rises=F Damp=F
 DIIS: error= 7.26D-08 at cycle   5 NSaved=   5.
 NSaved= 5 IEnMin= 5 EnMin= -1.17392418755376     IErMin= 5 ErrMin= 7.26D-08
 ErrMax= 7.26D-08 EMaxC= 1.00D-01 BMatC= 3.85D-14 BMatP= 6.48D-12
 IDIUse=1 WtCom= 1.00D+00 WtEn= 0.00D+00
 Coeff-Com:  0.271D-05 0.398D-04-0.829D-03-0.154D-02 0.100D+01
 Coeff:      0.271D-05 0.398D-04-0.829D-03-0.154D-02 0.100D+01
 Gap=     0.454 Goal=   None    Shift=    0.000
 RMSDP=1.36D-08 MaxDP=1.05D-07 DE=-1.73D-11 OVMax= 2.04D-07

 Cycle   6  Pass 1  IDiag  1:
 E= -1.17392418755384     Delta-E=       -0.000000000000 Rises=F Damp=F
 DIIS: error= 2.56D-10 at cycle   6 NSaved=   6.
 NSaved= 6 IEnMin= 6 EnMin= -1.17392418755384     IErMin= 6 ErrMin= 2.56D-10
 ErrMax= 2.56D-10 EMaxC= 1.00D-01 BMatC= 3.58D-19 BMatP= 3.85D-14
 IDIUse=1 WtCom= 1.00D+00 WtEn= 0.00D+00
 Coeff-Com:  0.553D-07-0.184D-05 0.372D-04 0.437D-03-0.862D-01 0.109D+01
 Coeff:      0.553D-07-0.184D-05 0.372D-04 0.437D-03-0.862D-01 0.109D+01
 Gap=     0.454 Goal=   None    Shift=    0.000
 RMSDP=7.15D-11 MaxDP=3.51D-10 DE=-7.42D-14 OVMax= 1.17D-09

 SCF Done:  E(RB3PW91) =  -1.17392418755     A.U. after    6 cycles
             Convg  =    0.7145D-10             -V/T =  2.0590
 KE= 1.108512321045D+00 PE=-3.611793177211D+00 EE= 6.142523326805D-01
 Leave Link  502 at Sat Aug 17 22:35:19 2024, MaxMem=   13107200 cpu:       0.2
 (Enter /programs/64bit/g09/g09-gfortran/bin/l601.exe)
 Copying SCF densities to generalized density rwf, IOpCl= 0 IROHF=0.

 **********************************************************************

            Population analysis using the SCF density.

 **********************************************************************

 Orbital symmetries:
       Occupied  (SGG)
       Virtual   (SGU) (SGG) (SGU) (PIU) (PIU) (SGG) (PIG) (PIG)
                 (SGU) (SGG) (SGU) (PIU) (PIU) (SGG) (PIG) (PIG)
                 (SGU)
 The electronic state is 1-SGG.
 Alpha  occ. eigenvalues --   -0.43034
 Alpha virt. eigenvalues --    0.02386   0.03331   0.13847   0.18178   0.18178
 Alpha virt. eigenvalues --    0.32764   0.37286   0.37286   0.45833   0.56830
 Alpha virt. eigenvalues --    1.03373   1.35706   1.35706   1.80957   1.97600
 Alpha virt. eigenvalues --    1.97600   3.38142
     Molecular Orbital Coefficients:
                           1         2         3         4         5
                       (SGG)--O  (SGU)--V  (SGG)--V  (SGU)--V  (PIU)--V
     Eigenvalues --    -0.43034   0.02386   0.03331   0.13847   0.18178
   1 1   H  1S          0.41382   0.11521  -0.10435   0.22496   0.00000
   2        2S          0.16028  -0.84154  -0.28526   7.69115   0.00000
   3        3S          0.01123   3.65465   0.66120  -3.99465   0.00000
   4        4PX         0.00000   0.00000   0.00000   0.00000   0.00000
   5        4PY         0.00000   0.00000   0.00000   0.00000   0.01287
   6        4PZ        -0.01838   0.01536   0.01353   0.05433   0.00000
   7        5PX         0.00000   0.00000   0.00000   0.00000   0.00000
   8        5PY         0.00000   0.00000   0.00000   0.00000   0.51106
   9        5PZ         0.00665   0.31332  -0.03490  -1.44392   0.00000
  10 2   H  1S          0.41382  -0.11521  -0.10435  -0.22496   0.00000
  11        2S          0.16028   0.84154  -0.28526  -7.69115   0.00000
  12        3S          0.01123  -3.65465   0.66120   3.99465   0.00000
  13        4PX         0.00000   0.00000   0.00000   0.00000   0.00000
  14        4PY         0.00000   0.00000   0.00000   0.00000   0.01287
  15        4PZ         0.01838   0.01536  -0.01353   0.05433   0.00000
  16        5PX         0.00000   0.00000   0.00000   0.00000   0.00000
  17        5PY         0.00000   0.00000   0.00000   0.00000   0.51106
  18        5PZ        -0.00665   0.31332   0.03490  -1.44392   0.00000
                           6         7         8         9        10
                       (PIU)--V  (SGG)--V  (PIG)--V  (PIG)--V  (SGU)--V
     Eigenvalues --     0.18178   0.32764   0.37286   0.37286   0.45833
   1 1   H  1S          0.00000  -0.21691   0.00000   0.00000  -0.30106
   2        2S          0.00000   0.87131   0.00000   0.00000  30.44483
   3        3S          0.00000  -0.42046   0.00000   0.00000  -2.81721
   4        4PX         0.01287   0.00000  -0.02295   0.00000   0.00000
   5        4PY         0.00000   0.00000   0.00000  -0.02295   0.00000
   6        4PZ         0.00000   0.00194   0.00000   0.00000   0.03336
   7        5PX         0.51106   0.00000   1.98713   0.00000   0.00000
   8        5PY         0.00000   0.00000   0.00000   1.98713   0.00000
   9        5PZ         0.00000   1.23429   0.00000   0.00000  -7.69769
  10 2   H  1S          0.00000  -0.21691   0.00000   0.00000   0.30106
  11        2S          0.00000   0.87131   0.00000   0.00000 -30.44483
  12        3S          0.00000  -0.42046   0.00000   0.00000   2.81721
  13        4PX         0.01287   0.00000   0.02295   0.00000   0.00000
  14        4PY         0.00000   0.00000   0.00000   0.02295   0.00000
  15        4PZ         0.00000  -0.00194   0.00000   0.00000   0.03336
  16        5PX         0.51106   0.00000  -1.98713   0.00000   0.00000
  17        5PY         0.00000   0.00000   0.00000  -1.98713   0.00000
  18        5PZ         0.00000  -1.23429   0.00000   0.00000  -7.69769
                          11        12        13        14        15
                       (SGG)--V  (SGU)--V  (PIU)--V  (PIU)--V  (SGG)--V
     Eigenvalues --     0.56830   1.03373   1.35706   1.35706   1.80957
   1 1   H  1S          0.80460   0.92331   0.00000   0.00000   0.40393
   2        2S         -0.64518  24.08167   0.00000   0.00000  -0.40477
   3        3S          0.21196  -0.67623   0.00000   0.00000   0.14110
   4        4PX         0.00000   0.00000   0.66937   0.00000   0.00000
   5        4PY         0.00000   0.00000   0.00000   0.66937   0.00000
   6        4PZ        -0.01253   0.47298   0.00000   0.00000   0.76408
   7        5PX         0.00000   0.00000  -0.30987   0.00000   0.00000
   8        5PY         0.00000   0.00000   0.00000  -0.30987   0.00000
   9        5PZ         0.96738  -6.83123   0.00000   0.00000  -0.46553
  10 2   H  1S          0.80460  -0.92331   0.00000   0.00000   0.40393
  11        2S         -0.64518 -24.08167   0.00000   0.00000  -0.40477
  12        3S          0.21196   0.67623   0.00000   0.00000   0.14110
  13        4PX         0.00000   0.00000   0.66937   0.00000   0.00000
  14        4PY         0.00000   0.00000   0.00000   0.66937   0.00000
  15        4PZ         0.01253   0.47298   0.00000   0.00000  -0.76408
  16        5PX         0.00000   0.00000  -0.30987   0.00000   0.00000
  17        5PY         0.00000   0.00000   0.00000  -0.30987   0.00000
  18        5PZ        -0.96738  -6.83123   0.00000   0.00000   0.46553
                          16        17        18
                       (PIG)--V  (PIG)--V  (SGU)--V
     Eigenvalues --     1.97600   1.97600   3.38142
   1 1   H  1S          0.00000   0.00000  -2.61428
   2        2S          0.00000   0.00000   7.86742
   3        3S          0.00000   0.00000  -0.44732
   4        4PX         1.06988   0.00000   0.00000
   5        4PY         0.00000   1.06988   0.00000
   6        4PZ         0.00000   0.00000   2.16136
   7        5PX        -0.75851   0.00000   0.00000
   8        5PY         0.00000  -0.75851   0.00000
   9        5PZ         0.00000   0.00000  -2.12880
  10 2   H  1S          0.00000   0.00000   2.61428
  11        2S          0.00000   0.00000  -7.86742
  12        3S          0.00000   0.00000   0.44732
  13        4PX        -1.06988   0.00000   0.00000
  14        4PY         0.00000  -1.06988   0.00000
  15        4PZ         0.00000   0.00000   2.16136
  16        5PX         0.75851   0.00000   0.00000
  17        5PY         0.00000   0.75851   0.00000
  18        5PZ         0.00000   0.00000  -2.12880
     Density Matrix:
                           1         2         3         4         5
   1 1   H  1S          0.34249
   2        2S          0.13266   0.05138
   3        3S          0.00930   0.00360   0.00025
   4        4PX        -0.00000  -0.00000  -0.00000   0.00000
   5        4PY        -0.00000  -0.00000  -0.00000   0.00000   0.00000
   6        4PZ        -0.01521  -0.00589  -0.00041   0.00000   0.00000
   7        5PX         0.00000   0.00000   0.00000  -0.00000   0.00000
   8        5PY         0.00000   0.00000   0.00000   0.00000  -0.00000
   9        5PZ         0.00551   0.00213   0.00015  -0.00000  -0.00000
  10 2   H  1S          0.34249   0.13266   0.00930  -0.00000  -0.00000
  11        2S          0.13266   0.05138   0.00360  -0.00000  -0.00000
  12        3S          0.00930   0.00360   0.00025  -0.00000  -0.00000
  13        4PX         0.00000   0.00000   0.00000  -0.00000   0.00000
  14        4PY         0.00000   0.00000   0.00000   0.00000  -0.00000
  15        4PZ         0.01521   0.00589   0.00041  -0.00000  -0.00000
  16        5PX        -0.00000  -0.00000  -0.00000   0.00000   0.00000
  17        5PY        -0.00000  -0.00000  -0.00000   0.00000   0.00000
  18        5PZ        -0.00551  -0.00213  -0.00015   0.00000   0.00000
                           6         7         8         9        10
   6        4PZ         0.00068
   7        5PX        -0.00000   0.00000
   8        5PY        -0.00000   0.00000   0.00000
   9        5PZ        -0.00024   0.00000   0.00000   0.00009
  10 2   H  1S         -0.01521   0.00000   0.00000   0.00551   0.34249
  11        2S         -0.00589   0.00000   0.00000   0.00213   0.13266
  12        3S         -0.00041   0.00000   0.00000   0.00015   0.00930
  13        4PX        -0.00000   0.00000   0.00000   0.00000   0.00000
  14        4PY        -0.00000   0.00000   0.00000   0.00000   0.00000
  15        4PZ        -0.00068   0.00000   0.00000   0.00024   0.01521
  16        5PX         0.00000  -0.00000   0.00000  -0.00000  -0.00000
  17        5PY         0.00000   0.00000  -0.00000  -0.00000  -0.00000
  18        5PZ         0.00024  -0.00000  -0.00000  -0.00009  -0.00551
                          11        12        13        14        15
  11        2S          0.05138
  12        3S          0.00360   0.00025
  13        4PX         0.00000   0.00000   0.00000
  14        4PY         0.00000   0.00000   0.00000   0.00000
  15        4PZ         0.00589   0.00041   0.00000   0.00000   0.00068
  16        5PX        -0.00000  -0.00000  -0.00000   0.00000  -0.00000
  17        5PY        -0.00000  -0.00000   0.00000  -0.00000  -0.00000
  18        5PZ        -0.00213  -0.00015  -0.00000  -0.00000  -0.00024
                          16        17        18
  16        5PX         0.00000
  17        5PY         0.00000   0.00000
  18        5PZ         0.00000   0.00000   0.00009
    Full Mulliken population analysis:
                           1         2         3         4         5
   1 1   H  1S          0.34249
   2        2S          0.09085   0.05138
   3        3S          0.00282   0.00255   0.00025
   4        4PX         0.00000   0.00000   0.00000   0.00000
   5        4PY         0.00000   0.00000   0.00000   0.00000   0.00000
   6        4PZ         0.00000   0.00000   0.00000  -0.00000   0.00000
   7        5PX         0.00000   0.00000   0.00000  -0.00000   0.00000
   8        5PY         0.00000   0.00000   0.00000   0.00000  -0.00000
   9        5PZ         0.00000   0.00000   0.00000   0.00000   0.00000
  10 2   H  1S          0.19547   0.07502   0.00267   0.00000   0.00000
  11        2S          0.07502   0.04560   0.00243   0.00000   0.00000
  12        3S          0.00267   0.00243   0.00025   0.00000   0.00000
  13        4PX         0.00000   0.00000   0.00000  -0.00000   0.00000
  14        4PY         0.00000   0.00000   0.00000   0.00000  -0.00000
  15        4PZ         0.00818   0.00097   0.00001   0.00000   0.00000
  16        5PX         0.00000   0.00000   0.00000   0.00000   0.00000
  17        5PY        -0.00000  -0.00000  -0.00000   0.00000   0.00000
  18        5PZ        -0.00265  -0.00091  -0.00002   0.00000  -0.00000
                           6         7         8         9        10
   6        4PZ         0.00068
   7        5PX         0.00000   0.00000
   8        5PY         0.00000   0.00000   0.00000
   9        5PZ        -0.00011  -0.00000   0.00000   0.00009
  10 2   H  1S          0.00818  -0.00000  -0.00000  -0.00265   0.34249
  11        2S          0.00097  -0.00000  -0.00000  -0.00091   0.09085
  12        3S          0.00001  -0.00000  -0.00000  -0.00002   0.00282
  13        4PX         0.00000   0.00000   0.00000  -0.00000   0.00000
  14        4PY         0.00000   0.00000   0.00000  -0.00000   0.00000
  15        4PZ         0.00014  -0.00000  -0.00000   0.00005   0.00000
  16        5PX         0.00000  -0.00000   0.00000   0.00000   0.00000
  17        5PY        -0.00000   0.00000  -0.00000   0.00000   0.00000
  18        5PZ         0.00005   0.00000   0.00000  -0.00006   0.00000
                          11        12        13        14        15
  11        2S          0.05138
  12        3S          0.00255   0.00025
  13        4PX         0.00000   0.00000   0.00000
  14        4PY         0.00000   0.00000   0.00000   0.00000
  15        4PZ         0.00000   0.00000   0.00000   0.00000   0.00068
  16        5PX         0.00000   0.00000  -0.00000   0.00000   0.00000
  17        5PY         0.00000   0.00000   0.00000  -0.00000   0.00000
  18        5PZ         0.00000   0.00000   0.00000   0.00000  -0.00011
                          16        17        18
  16        5PX         0.00000
  17        5PY         0.00000   0.00000
  18        5PZ         0.00000   0.00000   0.00009
     Gross orbital populations:
                           1
   1 1   H  1S          0.71485
   2        2S          0.26789
   3        3S          0.01096
   4        4PX         0.00000
   5        4PY         0.00000
   6        4PZ         0.00990
   7        5PX        -0.00000
   8        5PY        -0.00000
   9        5PZ        -0.00361
  10 2   H  1S          0.71485
  11        2S          0.26789
  12        3S          0.01096
  13        4PX         0.00000
  14        4PY         0.00000
  15        4PZ         0.00990
  16        5PX        -0.00000
  17        5PY        -0.00000
  18        5PZ        -0.00361
          Condensed to atoms (all electrons):
              1          2
     1  H    0.587105   0.412895
     2  H    0.412895   0.587105
 Mulliken atomic charges:
              1
     1  H    0.000000
     2  H    0.000000
 Sum of Mulliken atomic charges =   0.00000
 Mulliken charges with hydrogens summed into heavy atoms:
              1
 Sum of Mulliken charges with hydrogens summed into heavy atoms =   0.00000
 Electronic spatial extent (au):  <R**2>=              5.1250
 Charge=              0.0000 electrons
 Dipole moment (field-independent basis, Debye):
    X=              0.0000    Y=             -0.0000    Z=              0.0000  Tot=              0.0000
 Quadrupole moment (field-independent basis, Debye-Ang):
   XX=             -2.0326   YY=             -2.0326   ZZ=             -1.5129
   XY=             -0.0000   XZ=             -0.0000   YZ=              0.0000
 Traceless Quadrupole moment (field-independent basis, Debye-Ang):
   XX=             -0.1732   YY=             -0.1732   ZZ=              0.3464
   XY=             -0.0000   XZ=             -0.0000   YZ=              0.0000
 Octapole moment (field-independent basis, Debye-Ang**2):
  XXX=             -0.0000  YYY=              0.0000  ZZZ=              0.0000  XYY=             -0.0000
  XXY=              0.0000  XXZ=              0.0000  XZZ=             -0.0000  YZZ=             -0.0000
  YYZ=              0.0000  XYZ=              0.0000
 Hexadecapole moment (field-independent basis, Debye-Ang**3):
 XXXX=             -2.0568 YYYY=             -2.0568 ZZZZ=             -3.0414 XXXY=              0.0000
 XXXZ=              0.0000 YYYX=              0.0000 YYYZ=             -0.0000 ZZZX=              0.0000
 ZZZY=              0.0000 XXYY=             -0.6856 XXZZ=             -0.8638 YYZZ=             -0.8638
 XXYZ=             -0.0000 YYXZ=              0.0000 ZZXY=             -0.0000
 N-N= 7.151043359324D-01 E-N=-3.611793177033D+00  KE= 1.108512321045D+00
 Symmetry AG   KE= 1.108512321045D+00
 Symmetry B1G  KE= 0.000000000000D+00
 Symmetry B2G  KE= 3.040865596696D-34
 Symmetry B3G  KE= 3.040865596696D-34
 Symmetry AU   KE= 0.000000000000D+00
 Symmetry B1U  KE= 3.962442061643D-30
 Symmetry B2U  KE= 4.534278850914D-35
 Symmetry B3U  KE= 4.534278850914D-35
 Orbital energies and kinetic energies (alpha):
                                 1                 2
   1         (SGG)--O         -0.430339          0.554256
   2         (SGU)--V          0.023865          0.128264
   3         (SGG)--V          0.033305          0.109523
   4         (SGU)--V          0.138469          0.396077
   5         (PIU)--V          0.181776          0.349011
   6         (PIU)--V          0.181776          0.349011
   7         (SGG)--V          0.327644          0.523763
   8         (PIG)--V          0.372856          0.479422
   9         (PIG)--V          0.372856          0.479422
  10         (SGU)--V          0.458328          0.733285
  11         (SGG)--V          0.568296          1.059658
  12         (SGU)--V          1.033729          1.847587
  13         (PIU)--V          1.357059          1.930693
  14         (PIU)--V          1.357059          1.930693
  15         (SGG)--V          1.809569          2.478239
  16         (PIG)--V          1.975996          2.519264
  17         (PIG)--V          1.975996          2.519264
  18         (SGU)--V          3.381416          4.639584
 Total kinetic energy from orbitals= 1.108512321045D+00
 No NMR shielding tensors so no spin-rotation constants.
 Leave Link  601 at Sat Aug 17 22:35:19 2024, MaxMem=   13107200 cpu:       0.1
 (Enter /programs/64bit/g09/g09-gfortran/bin/l701.exe)
 Compute integral first derivatives.
 ... and contract with generalized density number  0.
 Leave Link  701 at Sat Aug 17 22:35:19 2024, MaxMem=   13107200 cpu:       0.1
 (Enter /programs/64bit/g09/g09-gfortran/bin/l702.exe)
 L702 exits ... SP integral derivatives will be done elsewhere.
 Leave Link  702 at Sat Aug 17 22:35:20 2024, MaxMem=   13107200 cpu:       0.0
 (Enter /programs/64bit/g09/g09-gfortran/bin/l703.exe)
 Compute integral first derivatives, UseDBF=F ICtDFT=           0.
 Integral derivatives from FoFDir, PRISM(SPDF).
 Calling FoFJK, ICntrl=      2127 FMM=F ISym2X=1 I1Cent= 0 IOpClX= 0 NMat=1 NMatS=1 NMatT=0.
 FoFCou: FMM=F IPFlag=           0 FMFlag=      100000 FMFlg1=         800
         NFxFlg=           0 DoJE=F BraDBF=F KetDBF=F FulRan=T
         Omega=  0.000000  0.000000  1.000000  0.000000  0.000000 ICntrl=    2127 IOpCl=  0
         NMat0=    1 NMatS0=    1 NMatT0=    0 NMatD0=    1 NMtDS0=    0 NMtDT0=    0
         I1Cent=           0 NGrid=           0.
 Petite list used in FoFCou.
 Leave Link  703 at Sat Aug 17 22:35:20 2024, MaxMem=   13107200 cpu:       0.1
 (Enter /programs/64bit/g09/g09-gfortran/bin/l716.exe)
 Dipole        = 2.46519033D-32-3.61111865D-35 0.00000000D+00
 ***** Axes restored to original set *****
 -------------------------------------------------------------------
 Center     Atomic                   Forces (Hartrees/Bohr)
 Number     Number              X              Y              Z
 -------------------------------------------------------------------
      1        1           0.000000000    0.000000000   -0.014688007
      2        1          -0.000000000   -0.000000000    0.014688007
 -------------------------------------------------------------------
 Cartesian Forces:  Max     0.014688007 RMS     0.008480125
 Leave Link  716 at Sat Aug 17 22:35:20 2024, MaxMem=   13107200 cpu:       0.0
 (Enter /programs/64bit/g09/g09-gfortran/bin/l103.exe)

 GradGradGradGradGradGradGradGradGradGradGradGradGradGradGradGradGradGrad
 Berny optimization.
 Internal  Forces:  Max     0.014688007 RMS     0.014688007
 Search for a local minimum.
 Step number   1 out of a maximum of   20
 All quantities printed in internal units (Hartrees-Bohrs-Radians)
 RMS Force = .14688D-01 SwitMx=.10000D-02 MixMth= 1
 Mixed Optimization -- RFO/linear search
 Second derivative matrix not updated -- first step.
 The second derivative matrix:
                          R1
           R1           0.39139
     Eigenvalues ---    0.39139
 RFO step:  Lambda=-5.50428595D-04 EMin= 3.91394209D-01
 Linear search not attempted -- first point.
 Iteration  1 RMS(Cart)=  0.02649861 RMS(Int)=  0.00000000
 Iteration  2 RMS(Cart)=  0.00000000 RMS(Int)=  0.00000000
 ClnCor:  largest displacement from symmetrization is 1.15D-18 for atom     1.
 Variable       Old X    -DE/DX   Delta X   Delta X   Delta X     New X
                                 (Linear)    (Quad)   (Total)
    R1        1.39840   0.01469   0.00000   0.03747   0.03747   1.43587
         Item               Value     Threshold  Converged?
 Maximum Force            0.014688     0.000450     NO 
 RMS     Force            0.014688     0.000300     NO 
 Maximum Displacement     0.018737     0.001800     NO 
 RMS     Displacement     0.026499     0.001200     NO 
 Predicted change in Energy=-2.756008D-04
 GradGradGradGradGradGradGradGradGradGradGradGradGradGradGradGradGradGrad

 Leave Link  103 at Sat Aug 17 22:35:20 2024, MaxMem=   13107200 cpu:       0.0
 (Enter /programs/64bit/g09/g09-gfortran/bin/l202.exe)
                          Input orientation:                          
 ---------------------------------------------------------------------
 Center     Atomic      Atomic             Coordinates (Angstroms)
 Number     Number       Type             X           Y           Z
 ---------------------------------------------------------------------
      1          1           0        0.000000    0.000000   -0.009915
      2          1           0        0.000000    0.000000    0.749915
 ---------------------------------------------------------------------
 Stoichiometry    H2
 Framework group  D*H[C*(H.H)]
 Deg. of freedom     1
 Full point group                 D*H     NOp   8
 Largest Abelian subgroup         D2H     NOp   8
 Largest concise Abelian subgroup C2      NOp   2
                         Standard orientation:                         
 ---------------------------------------------------------------------
 Center     Atomic      Atomic             Coordinates (Angstroms)
 Number     Number       Type             X           Y           Z
 ---------------------------------------------------------------------
      1          1           0        0.000000    0.000000    0.379915
      2          1           0        0.000000    0.000000   -0.379915
 ---------------------------------------------------------------------
 Rotational constants (GHZ):      0.0000000   1737.1139648   1737.1139648
 Leave Link  202 at Sat Aug 17 22:35:20 2024, MaxMem=   13107200 cpu:       0.0
 (Enter /programs/64bit/g09/g09-gfortran/bin/l301.exe)
 Standard basis: Aug-CC-pVDZ (5D, 7F)
 Ernie: Thresh=  0.10000D-02 Tol=  0.10000D-05 Strict=F.
 There are     5 symmetry adapted basis functions of AG  symmetry.
 There are     0 symmetry adapted basis functions of B1G symmetry.
 There are     2 symmetry adapted basis functions of B2G symmetry.
 There are     2 symmetry adapted basis functions of B3G symmetry.
 There are     0 symmetry adapted basis functions of AU  symmetry.
 There are     5 symmetry adapted basis functions of B1U symmetry.
 There are     2 symmetry adapted basis functions of B2U symmetry.
 There are     2 symmetry adapted basis functions of B3U symmetry.
 Integral buffers will be    131072 words long.
 Raffenetti 2 integral format.
 Two-electron integral symmetry is turned on.
    18 basis functions,    22 primitive gaussians,    18 cartesian basis functions
     1 alpha electrons        1 beta electrons
       nuclear repulsion energy         0.6964408912 Hartrees.
 IExCor=  408 DFT=T Ex+Corr=B3PW91 ExCW=0 ScaHFX=  0.200000
 ScaDFX=  0.800000  0.720000  1.000000  0.810000 ScalE2=  1.000000  1.000000
 IRadAn=      0 IRanWt=     -1 IRanGd=            0 ICorTp=0
 NAtoms=    2 NActive=    2 NUniq=    1 SFac= 3.00D+00 NAtFMM=   80 NAOKFM=F Big=F
 Leave Link  301 at Sat Aug 17 22:35:20 2024, MaxMem=   13107200 cpu:       0.1
 (Enter /programs/64bit/g09/g09-gfortran/bin/l302.exe)
 NPDir=0 NMtPBC=     1 NCelOv=     1 NCel=       1 NClECP=     1 NCelD=      1
         NCelK=      1 NCelE2=     1 NClLst=     1 CellRange=     0.0.
 One-electron integrals computed using PRISM.
 One-electron integral symmetry used in STVInt
 NBasis=    18 RedAO= T  NBF=     5     0     2     2     0     5     2     2
 NBsUse=    18 1.00D-06 NBFU=     5     0     2     2     0     5     2     2
 Precomputing XC quadrature grid using
 IXCGrd= 2 IRadAn=           0 IRanWt=          -1 IRanGd=           0 AccXCQ= 1.00D-10.
 NRdTot=     128 NPtTot=       16336 NUsed=       17271 NTot=       17303
 NSgBfM=    18    18    18    18    18 NAtAll=     2     2.
 Leave Link  302 at Sat Aug 17 22:35:20 2024, MaxMem=   13107200 cpu:       0.2
 (Enter /programs/64bit/g09/g09-gfortran/bin/l303.exe)
 DipDrv:  MaxL=1.
 Leave Link  303 at Sat Aug 17 22:35:20 2024, MaxMem=   13107200 cpu:       0.0
 (Enter /programs/64bit/g09/g09-gfortran/bin/l401.exe)
 Initial guess read from the read-write file.
 B after Tr=     0.000000    0.000000    0.000000
         Rot=    1.000000    0.000000    0.000000    0.000000 Ang=   0.00 deg.
 Guess basis will be translated and rotated to current coordinates.
 Initial guess orbital symmetries:
       Occupied  (SGG)
       Virtual   (SGU) (SGG) (SGU) (PIU) (PIU) (SGG) (PIG) (PIG)
                 (SGU) (SGG) (SGU) (PIU) (PIU) (SGG) (PIG) (PIG)
                 (SGU)
 The electronic state of the initial guess is 1-SGG.
 Leave Link  401 at Sat Aug 17 22:35:20 2024, MaxMem=   13107200 cpu:       0.1
 (Enter /programs/64bit/g09/g09-gfortran/bin/l502.exe)
 Closed shell SCF:
 Requested convergence on RMS density matrix=1.00D-08 within 128 cycles.
 Requested convergence on MAX density matrix=1.00D-06.
 Requested convergence on             energy=1.00D-06.
 No special actions if energy rises.
 Using DIIS extrapolation, IDIIS=  1040.
 Integral symmetry usage will be decided dynamically.
        17240 words used for storage of precomputed grid.
 Keep R1 ints in memory in canonical form, NReq=909671.
 IEnd=       37081 IEndB=       37081 NGot=    13107200 MDV=    13072488
 LenX=    13072488 LenY=    13071606
 Symmetry not used in FoFDir.
 MinBra= 0 MaxBra= 1 Meth= 1.
 IRaf=       0 NMat=   1 IRICut=       1 DoRegI=T DoRafI=F ISym2E= 0 JSym2E=0.

 Cycle   1  Pass 1  IDiag  1:
 E= -1.17414833002192    
 DIIS: error= 1.66D-03 at cycle   1 NSaved=   1.
 NSaved= 1 IEnMin= 1 EnMin= -1.17414833002192     IErMin= 1 ErrMin= 1.66D-03
 ErrMax= 1.66D-03 EMaxC= 1.00D-01 BMatC= 2.55D-05 BMatP= 2.55D-05
 IDIUse=3 WtCom= 9.83D-01 WtEn= 1.66D-02
 Coeff-Com:  0.100D+01
 Coeff-En:   0.100D+01
 Coeff:      0.100D+01
 Gap=     0.458 Goal=   None    Shift=    0.000
 GapD=    0.458 DampG=2.000 DampE=1.000 DampFc=2.0000 IDamp=-1.
 RMSDP=4.26D-04 MaxDP=3.25D-03              OVMax= 5.68D-03

 Cycle   2  Pass 1  IDiag  1:
 E= -1.17419531347174     Delta-E=       -0.000046983450 Rises=F Damp=F
 DIIS: error= 3.24D-04 at cycle   2 NSaved=   2.
 NSaved= 2 IEnMin= 2 EnMin= -1.17419531347174     IErMin= 2 ErrMin= 3.24D-04
 ErrMax= 3.24D-04 EMaxC= 1.00D-01 BMatC= 6.00D-07 BMatP= 2.55D-05
 IDIUse=3 WtCom= 9.97D-01 WtEn= 3.24D-03
 Coeff-Com:  0.122D+00 0.878D+00
 Coeff-En:   0.000D+00 0.100D+01
 Coeff:      0.122D+00 0.878D+00
 Gap=     0.449 Goal=   None    Shift=    0.000
 RMSDP=4.60D-05 MaxDP=3.01D-04 DE=-4.70D-05 OVMax= 8.27D-04

 Cycle   3  Pass 1  IDiag  1:
 E= -1.17419646958836     Delta-E=       -0.000001156117 Rises=F Damp=F
 DIIS: error= 1.47D-05 at cycle   3 NSaved=   3.
 NSaved= 3 IEnMin= 3 EnMin= -1.17419646958836     IErMin= 3 ErrMin= 1.47D-05
 ErrMax= 1.47D-05 EMaxC= 1.00D-01 BMatC= 1.29D-09 BMatP= 6.00D-07
 IDIUse=1 WtCom= 1.00D+00 WtEn= 0.00D+00
 Coeff-Com: -0.143D-01-0.643D-01 0.108D+01
 Coeff:     -0.143D-01-0.643D-01 0.108D+01
 Gap=     0.449 Goal=   None    Shift=    0.000
 RMSDP=4.48D-06 MaxDP=2.31D-05 DE=-1.16D-06 OVMax= 3.97D-05

 Cycle   4  Pass 1  IDiag  1:
 E= -1.17419647244881     Delta-E=       -0.000000002860 Rises=F Damp=F
 DIIS: error= 3.97D-07 at cycle   4 NSaved=   4.
 NSaved= 4 IEnMin= 4 EnMin= -1.17419647244881     IErMin= 4 ErrMin= 3.97D-07
 ErrMax= 3.97D-07 EMaxC= 1.00D-01 BMatC= 1.40D-12 BMatP= 1.29D-09
 IDIUse=1 WtCom= 1.00D+00 WtEn= 0.00D+00
 Coeff-Com:  0.106D-02 0.540D-02-0.946D-01 0.109D+01
 Coeff:      0.106D-02 0.540D-02-0.946D-01 0.109D+01
 Gap=     0.449 Goal=   None    Shift=    0.000
 RMSDP=1.35D-07 MaxDP=7.08D-07 DE=-2.86D-09 OVMax= 1.08D-06

 Cycle   5  Pass 1  IDiag  1:
 E= -1.17419647245119     Delta-E=       -0.000000000002 Rises=F Damp=F
 DIIS: error= 2.72D-09 at cycle   5 NSaved=   5.
 NSaved= 5 IEnMin= 5 EnMin= -1.17419647245119     IErMin= 5 ErrMin= 2.72D-09
 ErrMax= 2.72D-09 EMaxC= 1.00D-01 BMatC= 4.57D-17 BMatP= 1.40D-12
 IDIUse=1 WtCom= 1.00D+00 WtEn= 0.00D+00
 Coeff-Com: -0.978D-04-0.506D-03 0.877D-02-0.100D+00 0.109D+01
 Coeff:     -0.978D-04-0.506D-03 0.877D-02-0.100D+00 0.109D+01
 Gap=     0.449 Goal=   None    Shift=    0.000
 RMSDP=7.97D-10 MaxDP=3.16D-09 DE=-2.38D-12 OVMax= 9.67D-09

 SCF Done:  E(RB3PW91) =  -1.17419647245     A.U. after    5 cycles
             Convg  =    0.7966D-09             -V/T =  2.0754
 KE= 1.091866575015D+00 PE=-3.569809041770D+00 EE= 6.073051030682D-01
 Leave Link  502 at Sat Aug 17 22:35:21 2024, MaxMem=   13107200 cpu:       0.2
 (Enter /programs/64bit/g09/g09-gfortran/bin/l701.exe)
 Compute integral first derivatives.
 ... and contract with generalized density number  0.
 Leave Link  701 at Sat Aug 17 22:35:21 2024, MaxMem=   13107200 cpu:       0.1
 (Enter /programs/64bit/g09/g09-gfortran/bin/l702.exe)
 L702 exits ... SP integral derivatives will be done elsewhere.
 Leave Link  702 at Sat Aug 17 22:35:21 2024, MaxMem=   13107200 cpu:       0.0
 (Enter /programs/64bit/g09/g09-gfortran/bin/l703.exe)
 Compute integral first derivatives, UseDBF=F ICtDFT=           0.
 Integral derivatives from FoFDir, PRISM(SPDF).
 Calling FoFJK, ICntrl=      2127 FMM=F ISym2X=1 I1Cent= 0 IOpClX= 0 NMat=1 NMatS=1 NMatT=0.
 FoFCou: FMM=F IPFlag=           0 FMFlag=      100000 FMFlg1=         800
         NFxFlg=           0 DoJE=F BraDBF=F KetDBF=F FulRan=T
         Omega=  0.000000  0.000000  1.000000  0.000000  0.000000 ICntrl=    2127 IOpCl=  0
         NMat0=    1 NMatS0=    1 NMatT0=    0 NMatD0=    1 NMtDS0=    0 NMtDT0=    0
         I1Cent=           0 NGrid=           0.
 Petite list used in FoFCou.
 Leave Link  703 at Sat Aug 17 22:35:21 2024, MaxMem=   13107200 cpu:       0.1
 (Enter /programs/64bit/g09/g09-gfortran/bin/l716.exe)
 Dipole        =-7.39557099D-32-8.42594351D-35 0.00000000D+00
 ***** Axes restored to original set *****
 -------------------------------------------------------------------
 Center     Atomic                   Forces (Hartrees/Bohr)
 Number     Number              X              Y              Z
 -------------------------------------------------------------------
      1        1           0.000000000    0.000000000   -0.000143111
      2        1          -0.000000000   -0.000000000    0.000143111
 -------------------------------------------------------------------
 Cartesian Forces:  Max     0.000143111 RMS     0.000082625
 Leave Link  716 at Sat Aug 17 22:35:21 2024, MaxMem=   13107200 cpu:       0.0
 (Enter /programs/64bit/g09/g09-gfortran/bin/l103.exe)

 GradGradGradGradGradGradGradGradGradGradGradGradGradGradGradGradGradGrad
 Berny optimization.
 Using GEDIIS/GDIIS optimizer.
 Internal  Forces:  Max     0.000143111 RMS     0.000143111
 Search for a local minimum.
 Step number   2 out of a maximum of   20
 All quantities printed in internal units (Hartrees-Bohrs-Radians)
 RMS Force = .14311D-03 SwitMx=.10000D-02 MixMth= 2
 Mixed Optimization -- En-DIIS/RFO-DIIS
 Update second derivatives using D2CorX and points    1    2
 DE= -2.72D-04 DEPred=-2.76D-04 R= 9.88D-01
 SS=  1.41D+00  RLast= 3.75D-02 DXNew= 5.0454D-01 1.1242D-01
 Trust test= 9.88D-01 RLast= 3.75D-02 DXMaxT set to 3.00D-01
 The second derivative matrix:
                          R1
           R1           0.38813
 Use linear search instead of GDIIS.
     Eigenvalues ---    0.38813
 RFO step:  Lambda= 0.00000000D+00 EMin= 3.88125779D-01
 Quartic linear search produced a step of  0.01049.
 Iteration  1 RMS(Cart)=  0.00027789 RMS(Int)=  0.00000000
 Iteration  2 RMS(Cart)=  0.00000000 RMS(Int)=  0.00000000
 ClnCor:  largest displacement from symmetrization is 2.22D-16 for atom     2.
 Variable       Old X    -DE/DX   Delta X   Delta X   Delta X     New X
                                 (Linear)    (Quad)   (Total)
    R1        1.43587   0.00014   0.00039   0.00000   0.00039   1.43627
         Item               Value     Threshold  Converged?
 Maximum Force            0.000143     0.000450     YES
 RMS     Force            0.000143     0.000300     YES
 Maximum Displacement     0.000196     0.001800     YES
 RMS     Displacement     0.000278     0.001200     YES
 Predicted change in Energy=-2.626972D-08
 Optimization completed.
    -- Stationary point found.
                           ----------------------------
                           !   Optimized Parameters   !
                           ! (Angstroms and Degrees)  !
 --------------------------                            --------------------------
 ! Name  Definition              Value          Derivative Info.                !
 --------------------------------------------------------------------------------
 ! R1    R(1,2)                  0.7598         -DE/DX =    0.0001              !
 --------------------------------------------------------------------------------
 GradGradGradGradGradGradGradGradGradGradGradGradGradGradGradGradGradGrad

 Largest change from initial coordinates is atom    2       0.010 Angstoms.
 Leave Link  103 at Sat Aug 17 22:35:21 2024, MaxMem=   13107200 cpu:       0.0
 (Enter /programs/64bit/g09/g09-gfortran/bin/l202.exe)
                          Input orientation:                          
 ---------------------------------------------------------------------
 Center     Atomic      Atomic             Coordinates (Angstroms)
 Number     Number       Type             X           Y           Z
 ---------------------------------------------------------------------
      1          1           0        0.000000    0.000000   -0.009915
      2          1           0        0.000000    0.000000    0.749915
 ---------------------------------------------------------------------
 Stoichiometry    H2
 Framework group  D*H[C*(H.H)]
 Deg. of freedom     1
 Full point group                 D*H     NOp   8
 Largest Abelian subgroup         D2H     NOp   8
 Largest concise Abelian subgroup C2      NOp   2
                         Standard orientation:                         
 ---------------------------------------------------------------------
 Center     Atomic      Atomic             Coordinates (Angstroms)
 Number     Number       Type             X           Y           Z
 ---------------------------------------------------------------------
      1          1           0        0.000000    0.000000    0.379915
      2          1           0        0.000000    0.000000   -0.379915
 ---------------------------------------------------------------------
 Rotational constants (GHZ):      0.0000000   1737.1139648   1737.1139648
 Leave Link  202 at Sat Aug 17 22:35:21 2024, MaxMem=   13107200 cpu:       0.0
 (Enter /programs/64bit/g09/g09-gfortran/bin/l601.exe)
 Copying SCF densities to generalized density rwf, IOpCl= 0 IROHF=0.

 **********************************************************************

            Population analysis using the SCF density.

 **********************************************************************

 Orbital symmetries:
       Occupied  (SGG)
       Virtual   (SGU) (SGG) (SGU) (PIU) (PIU) (SGG) (PIG) (PIG)
                 (SGU) (SGG) (SGU) (PIU) (PIU) (SGG) (PIG) (PIG)
                 (SGU)
 The electronic state is 1-SGG.
 Alpha  occ. eigenvalues --   -0.42639
 Alpha virt. eigenvalues --    0.02235   0.03343   0.13547   0.18061   0.18061
 Alpha virt. eigenvalues --    0.32709   0.37112   0.37112   0.45948   0.57083
 Alpha virt. eigenvalues --    1.00090   1.35719   1.35719   1.79246   1.96374
 Alpha virt. eigenvalues --    1.96374   3.27862
     Molecular Orbital Coefficients:
                           1         2         3         4         5
                       (SGG)--O  (SGU)--V  (SGG)--V  (SGU)--V  (PIU)--V
     Eigenvalues --    -0.42639   0.02235   0.03343   0.13547   0.18061
   1 1   H  1S          0.41180   0.12357  -0.10450   0.23176   0.00000
   2        2S          0.16401  -0.69938  -0.28850   7.04334   0.00000
   3        3S          0.01144   3.48368   0.66252  -3.90090   0.00000
   4        4PX         0.00000   0.00000   0.00000   0.00000   0.00000
   5        4PY         0.00000   0.00000   0.00000   0.00000   0.01266
   6        4PZ        -0.01790   0.01640   0.01340   0.04966   0.00000
   7        5PX         0.00000   0.00000   0.00000   0.00000   0.00000
   8        5PY         0.00000   0.00000   0.00000   0.00000   0.51207
   9        5PZ         0.00473   0.29158  -0.03274  -1.33740   0.00000
  10 2   H  1S          0.41180  -0.12357  -0.10450  -0.23176   0.00000
  11        2S          0.16401   0.69938  -0.28850  -7.04334   0.00000
  12        3S          0.01144  -3.48368   0.66252   3.90090   0.00000
  13        4PX         0.00000   0.00000   0.00000   0.00000   0.00000
  14        4PY         0.00000   0.00000   0.00000   0.00000   0.01266
  15        4PZ         0.01790   0.01640  -0.01340   0.04966   0.00000
  16        5PX         0.00000   0.00000   0.00000   0.00000   0.00000
  17        5PY         0.00000   0.00000   0.00000   0.00000   0.51207
  18        5PZ        -0.00473   0.29158   0.03274  -1.33740   0.00000
                           6         7         8         9        10
                       (PIU)--V  (SGG)--V  (PIG)--V  (PIG)--V  (SGU)--V
     Eigenvalues --     0.18061   0.32709   0.37112   0.37112   0.45948
   1 1   H  1S          0.00000  -0.21130   0.00000   0.00000  -0.30139
   2        2S          0.00000   0.86421   0.00000   0.00000  29.79843
   3        3S          0.00000  -0.41738   0.00000   0.00000  -2.70934
   4        4PX         0.01266   0.00000  -0.02224   0.00000   0.00000
   5        4PY         0.00000   0.00000   0.00000  -0.02224   0.00000
   6        4PZ         0.00000   0.00236   0.00000   0.00000   0.02972
   7        5PX         0.51207   0.00000   1.93867   0.00000   0.00000
   8        5PY         0.00000   0.00000   0.00000   1.93867   0.00000
   9        5PZ         0.00000   1.21498   0.00000   0.00000  -7.75925
  10 2   H  1S          0.00000  -0.21130   0.00000   0.00000   0.30139
  11        2S          0.00000   0.86421   0.00000   0.00000 -29.79843
  12        3S          0.00000  -0.41738   0.00000   0.00000   2.70934
  13        4PX         0.01266   0.00000   0.02224   0.00000   0.00000
  14        4PY         0.00000   0.00000   0.00000   0.02224   0.00000
  15        4PZ         0.00000  -0.00236   0.00000   0.00000   0.02972
  16        5PX         0.51207   0.00000  -1.93867   0.00000   0.00000
  17        5PY         0.00000   0.00000   0.00000  -1.93867   0.00000
  18        5PZ         0.00000  -1.21498   0.00000   0.00000  -7.75925
                          11        12        13        14        15
                       (SGG)--V  (SGU)--V  (PIU)--V  (PIU)--V  (SGG)--V
     Eigenvalues --     0.57083   1.00090   1.35719   1.35719   1.79246
   1 1   H  1S          0.81251   0.94059   0.00000   0.00000   0.39779
   2        2S         -0.65783  22.86162   0.00000   0.00000  -0.40267
   3        3S          0.21694  -0.51527   0.00000   0.00000   0.14062
   4        4PX         0.00000   0.00000   0.00000   0.67415   0.00000
   5        4PY         0.00000   0.00000   0.67415   0.00000   0.00000
   6        4PZ        -0.01622   0.44059   0.00000   0.00000   0.75283
   7        5PX         0.00000   0.00000   0.00000  -0.31118   0.00000
   8        5PY         0.00000   0.00000  -0.31118   0.00000   0.00000
   9        5PZ         0.92838  -6.70820   0.00000   0.00000  -0.46291
  10 2   H  1S          0.81251  -0.94059   0.00000   0.00000   0.39779
  11        2S         -0.65783 -22.86162   0.00000   0.00000  -0.40267
  12        3S          0.21694   0.51527   0.00000   0.00000   0.14062
  13        4PX         0.00000   0.00000   0.00000   0.67415   0.00000
  14        4PY         0.00000   0.00000   0.67415   0.00000   0.00000
  15        4PZ         0.01622   0.44059   0.00000   0.00000  -0.75283
  16        5PX         0.00000   0.00000   0.00000  -0.31118   0.00000
  17        5PY         0.00000   0.00000  -0.31118   0.00000   0.00000
  18        5PZ        -0.92838  -6.70820   0.00000   0.00000   0.46291
                          16        17        18
                       (PIG)--V  (PIG)--V  (SGU)--V
     Eigenvalues --     1.96374   1.96374   3.27862
   1 1   H  1S          0.00000   0.00000  -2.41231
   2        2S          0.00000   0.00000   7.93392
   3        3S          0.00000   0.00000  -0.41188
   4        4PX         1.05159   0.00000   0.00000
   5        4PY         0.00000   1.05159   0.00000
   6        4PZ         0.00000   0.00000   2.10709
   7        5PX        -0.74456   0.00000   0.00000
   8        5PY         0.00000  -0.74456   0.00000
   9        5PZ         0.00000   0.00000  -2.22483
  10 2   H  1S          0.00000   0.00000   2.41231
  11        2S          0.00000   0.00000  -7.93392
  12        3S          0.00000   0.00000   0.41188
  13        4PX        -1.05159   0.00000   0.00000
  14        4PY         0.00000  -1.05159   0.00000
  15        4PZ         0.00000   0.00000   2.10709
  16        5PX         0.74456   0.00000   0.00000
  17        5PY         0.00000   0.74456   0.00000
  18        5PZ         0.00000   0.00000  -2.22483
     Density Matrix:
                           1         2         3         4         5
   1 1   H  1S          0.33916
   2        2S          0.13508   0.05380
   3        3S          0.00942   0.00375   0.00026
   4        4PX        -0.00000  -0.00000  -0.00000   0.00000
   5        4PY        -0.00000  -0.00000  -0.00000   0.00000   0.00000
   6        4PZ        -0.01475  -0.00587  -0.00041   0.00000   0.00000
   7        5PX         0.00000   0.00000   0.00000  -0.00000   0.00000
   8        5PY         0.00000   0.00000   0.00000   0.00000  -0.00000
   9        5PZ         0.00389   0.00155   0.00011  -0.00000  -0.00000
  10 2   H  1S          0.33916   0.13508   0.00942  -0.00000  -0.00000
  11        2S          0.13508   0.05380   0.00375  -0.00000  -0.00000
  12        3S          0.00942   0.00375   0.00026  -0.00000  -0.00000
  13        4PX         0.00000   0.00000   0.00000  -0.00000   0.00000
  14        4PY         0.00000   0.00000   0.00000   0.00000  -0.00000
  15        4PZ         0.01475   0.00587   0.00041  -0.00000  -0.00000
  16        5PX        -0.00000  -0.00000  -0.00000   0.00000   0.00000
  17        5PY        -0.00000  -0.00000  -0.00000   0.00000   0.00000
  18        5PZ        -0.00389  -0.00155  -0.00011   0.00000   0.00000
                           6         7         8         9        10
   6        4PZ         0.00064
   7        5PX        -0.00000   0.00000
   8        5PY        -0.00000   0.00000   0.00000
   9        5PZ        -0.00017   0.00000   0.00000   0.00004
  10 2   H  1S         -0.01475   0.00000   0.00000   0.00389   0.33916
  11        2S         -0.00587   0.00000   0.00000   0.00155   0.13508
  12        3S         -0.00041   0.00000   0.00000   0.00011   0.00942
  13        4PX        -0.00000   0.00000   0.00000   0.00000   0.00000
  14        4PY        -0.00000   0.00000   0.00000   0.00000   0.00000
  15        4PZ        -0.00064   0.00000   0.00000   0.00017   0.01475
  16        5PX         0.00000  -0.00000   0.00000  -0.00000  -0.00000
  17        5PY         0.00000   0.00000  -0.00000  -0.00000  -0.00000
  18        5PZ         0.00017  -0.00000  -0.00000  -0.00004  -0.00389
                          11        12        13        14        15
  11        2S          0.05380
  12        3S          0.00375   0.00026
  13        4PX         0.00000   0.00000   0.00000
  14        4PY         0.00000   0.00000   0.00000   0.00000
  15        4PZ         0.00587   0.00041   0.00000   0.00000   0.00064
  16        5PX        -0.00000  -0.00000  -0.00000   0.00000  -0.00000
  17        5PY        -0.00000  -0.00000   0.00000  -0.00000  -0.00000
  18        5PZ        -0.00155  -0.00011  -0.00000  -0.00000  -0.00017
                          16        17        18
  16        5PX         0.00000
  17        5PY         0.00000   0.00000
  18        5PZ         0.00000   0.00000   0.00004
    Full Mulliken population analysis:
                           1         2         3         4         5
   1 1   H  1S          0.33916
   2        2S          0.09251   0.05380
   3        3S          0.00286   0.00265   0.00026
   4        4PX         0.00000   0.00000   0.00000   0.00000
   5        4PY         0.00000   0.00000   0.00000   0.00000   0.00000
   6        4PZ         0.00000   0.00000   0.00000  -0.00000   0.00000
   7        5PX         0.00000   0.00000   0.00000  -0.00000   0.00000
   8        5PY         0.00000   0.00000   0.00000   0.00000  -0.00000
   9        5PZ         0.00000   0.00000   0.00000   0.00000   0.00000
  10 2   H  1S          0.18816   0.07560   0.00270   0.00000   0.00000
  11        2S          0.07560   0.04744   0.00253   0.00000   0.00000
  12        3S          0.00270   0.00253   0.00025   0.00000   0.00000
  13        4PX         0.00000   0.00000   0.00000  -0.00000   0.00000
  14        4PY         0.00000   0.00000   0.00000   0.00000  -0.00000
  15        4PZ         0.00785   0.00098   0.00001   0.00000   0.00000
  16        5PX         0.00000   0.00000   0.00000   0.00000   0.00000
  17        5PY        -0.00000  -0.00000  -0.00000   0.00000   0.00000
  18        5PZ        -0.00190  -0.00067  -0.00001   0.00000  -0.00000
                           6         7         8         9        10
   6        4PZ         0.00064
   7        5PX         0.00000   0.00000
   8        5PY         0.00000   0.00000   0.00000
   9        5PZ        -0.00008  -0.00000   0.00000   0.00004
  10 2   H  1S          0.00785  -0.00000  -0.00000  -0.00190   0.33916
  11        2S          0.00098  -0.00000  -0.00000  -0.00067   0.09251
  12        3S          0.00001  -0.00000  -0.00000  -0.00001   0.00286
  13        4PX         0.00000   0.00000   0.00000  -0.00000   0.00000
  14        4PY         0.00000   0.00000   0.00000  -0.00000   0.00000
  15        4PZ         0.00015  -0.00000  -0.00000   0.00003   0.00000
  16        5PX         0.00000  -0.00000   0.00000   0.00000   0.00000
  17        5PY        -0.00000   0.00000  -0.00000   0.00000   0.00000
  18        5PZ         0.00003   0.00000   0.00000  -0.00003   0.00000
                          11        12        13        14        15
  11        2S          0.05380
  12        3S          0.00265   0.00026
  13        4PX         0.00000   0.00000   0.00000
  14        4PY         0.00000   0.00000   0.00000   0.00000
  15        4PZ         0.00000   0.00000   0.00000   0.00000   0.00064
  16        5PX         0.00000   0.00000  -0.00000   0.00000   0.00000
  17        5PY         0.00000   0.00000   0.00000  -0.00000   0.00000
  18        5PZ         0.00000   0.00000   0.00000   0.00000  -0.00008
                          16        17        18
  16        5PX         0.00000
  17        5PY         0.00000   0.00000
  18        5PZ         0.00000   0.00000   0.00004
     Gross orbital populations:
                           1
   1 1   H  1S          0.70694
   2        2S          0.27484
   3        3S          0.01125
   4        4PX         0.00000
   5        4PY         0.00000
   6        4PZ         0.00959
   7        5PX        -0.00000
   8        5PY        -0.00000
   9        5PZ        -0.00262
  10 2   H  1S          0.70694
  11        2S          0.27484
  12        3S          0.01125
  13        4PX         0.00000
  14        4PY         0.00000
  15        4PZ         0.00959
  16        5PX        -0.00000
  17        5PY        -0.00000
  18        5PZ        -0.00262
          Condensed to atoms (all electrons):
              1          2
     1  H    0.589800   0.410200
     2  H    0.410200   0.589800
 Mulliken atomic charges:
              1
     1  H   -0.000000
     2  H   -0.000000
 Sum of Mulliken atomic charges =  -0.00000
 Mulliken charges with hydrogens summed into heavy atoms:
              1
 Sum of Mulliken charges with hydrogens summed into heavy atoms =  -0.00000
 Electronic spatial extent (au):  <R**2>=              5.2232
 Charge=             -0.0000 electrons
 Dipole moment (field-independent basis, Debye):
    X=             -0.0000    Y=             -0.0000    Z=             -0.0000  Tot=              0.0000
 Quadrupole moment (field-independent basis, Debye-Ang):
   XX=             -2.0627   YY=             -2.0627   ZZ=             -1.5133
   XY=             -0.0000   XZ=             -0.0000   YZ=              0.0000
 Traceless Quadrupole moment (field-independent basis, Debye-Ang):
   XX=             -0.1831   YY=             -0.1831   ZZ=              0.3663
   XY=             -0.0000   XZ=             -0.0000   YZ=              0.0000
 Octapole moment (field-independent basis, Debye-Ang**2):
  XXX=             -0.0000  YYY=              0.0000  ZZZ=              0.0000  XYY=             -0.0000
  XXY=             -0.0000  XXZ=              0.0000  XZZ=             -0.0000  YZZ=             -0.0000
  YYZ=              0.0000  XYZ=              0.0000
 Hexadecapole moment (field-independent basis, Debye-Ang**3):
 XXXX=             -2.1179 YYYY=             -2.1179 ZZZZ=             -3.1393 XXXY=             -0.0000
 XXXZ=              0.0000 YYYX=             -0.0000 YYYZ=              0.0000 ZZZX=              0.0000
 ZZZY=              0.0000 XXYY=             -0.7060 XXZZ=             -0.8922 YYZZ=             -0.8922
 XXYZ=              0.0000 YYXZ=              0.0000 ZZXY=             -0.0000
 N-N= 6.964408912350D-01 E-N=-3.569809042574D+00  KE= 1.091866575015D+00
 Symmetry AG   KE= 1.091866575015D+00
 Symmetry B1G  KE= 0.000000000000D+00
 Symmetry B2G  KE= 2.954678651824D-34
 Symmetry B3G  KE= 2.954678651824D-34
 Symmetry AU   KE= 0.000000000000D+00
 Symmetry B1U  KE= 6.513124453587D-31
 Symmetry B2U  KE= 4.430517530300D-35
 Symmetry B3U  KE= 4.430517530300D-35
 Orbital energies and kinetic energies (alpha):
                                 1                 2
   1         (SGG)--O         -0.426387          0.545933
   2         (SGU)--V          0.022349          0.135387
   3         (SGG)--V          0.033427          0.109925
   4         (SGU)--V          0.135467          0.400391
   5         (PIU)--V          0.180607          0.348412
   6         (PIU)--V          0.180607          0.348412
   7         (SGG)--V          0.327091          0.521482
   8         (PIG)--V          0.371124          0.478953
   9         (PIG)--V          0.371124          0.478953
  10         (SGU)--V          0.459479          0.728425
  11         (SGG)--V          0.570835          1.068949
  12         (SGU)--V          1.000895          1.811788
  13         (PIU)--V          1.357193          1.927181
  14         (PIU)--V          1.357193          1.927181
  15         (SGG)--V          1.792458          2.462421
  16         (PIG)--V          1.963736          2.509135
  17         (PIG)--V          1.963736          2.509135
  18         (SGU)--V          3.278619          4.474391
 Total kinetic energy from orbitals= 1.091866575015D+00
 No NMR shielding tensors so no spin-rotation constants.
 Leave Link  601 at Sat Aug 17 22:35:21 2024, MaxMem=   13107200 cpu:       0.1
 (Enter /programs/64bit/g09/g09-gfortran/bin/l9999.exe)
 B after Tr=     0.000000    0.000000    0.699199
         Rot=    0.000000   -0.000000    1.000000   -0.000000 Ang= 180.00 deg.
 Final structure in terms of initial Z-matrix:
 H
 H,1,d
      Variables:
 d=0.75983076
 1\1\GINC-MOLMOD\FOpt\RB3PW91\Aug-CC-pVDZ\H2\OSPITE\17-Aug-2024\0\\#p b
 3pw91/aug-cc-pVDZ opt freq pop=full gfinput\\hydrogen (moldecule) with
  and aug-cc-pVDZ basis function\\0,1\H,0.,0.,-0.0099153778\H,0.,0.,0.7
 499153778\\Version=EM64L-G09RevA.02\State=1-SGG\HF=-1.1741965\RMSD=7.9
 66e-10\RMSF=8.262e-05\Dipole=0.,0.,0.\Quadrupole=-0.1361648,-0.1361648
 ,0.2723296,0.,0.,0.\PG=D*H [C*(H1.H1)]\\@


 Other things may change us, but we start and end with family.
 -- Anthony Brandt
 Leave Link 9999 at Sat Aug 17 22:35:21 2024, MaxMem=   13107200 cpu:       0.0
 Job cpu time:  0 days  0 hours  0 minutes  3.0 seconds.
 File lengths (MBytes):  RWF=      5 Int=      0 D2E=      0 Chk=      1 Scr=      1
 Normal termination of Gaussian 09 at Sat Aug 17 22:35:21 2024.
 (Enter /programs/64bit/g09/g09-gfortran/bin/l1.exe)
 Link1:  Proceeding to internal job step number  2.
 ----------------------------------------------------------------------
 #P Geom=AllCheck Guess=TCheck SCRF=Check GenChk RB3PW91/Aug-CC-pVDZ Fr
 eq
 ----------------------------------------------------------------------
 1/10=4,29=7,30=1,38=1,40=1/1,3;
 2/12=2,40=1/2;
 3/5=16,7=10,11=2,14=-4,16=1,24=10,25=1,30=1,70=2,71=2,74=-6,116=1/1,2,3;
 4/5=101/1;
 5/5=2,98=1/2;
 8/6=4,10=90,11=11/1;
 11/6=1,8=1,9=11,15=111,16=1/1,2,10;
 10/6=1/2;
 6/7=3,18=1,28=1/1;
 7/8=1,10=1,25=1/1,2,3,16;
 1/10=4,30=1/3;
 99//99;
 Leave Link    1 at Sat Aug 17 22:35:22 2024, MaxMem=   13107200 cpu:       0.1
 (Enter /programs/64bit/g09/g09-gfortran/bin/l101.exe)
 --------------------------------------------------------
 hydrogen (moldecule) with and aug-cc-pVDZ basis function
 --------------------------------------------------------
 Redundant internal coordinates taken from checkpoint file:
 /home/ospite/Desktop/MMfP/Project6/H2/g09/DFT/B3PW91/Gau-15069.chk
 Charge =  0 Multiplicity = 1
 H,0,0.,0.,-0.0099153778
 H,0,0.,0.,0.7499153778
 Recover connectivity data from disk.
                    Isotopes and Nuclear Properties:
 (Nuclear quadrupole moments (NQMom) in fm**2, nuclear magnetic moments (NMagM)
  in nuclear magnetons)

  Atom         1           2
 IAtWgt=           1           1
 AtmWgt=   1.0078250   1.0078250
 NucSpn=           1           1
 AtZEff=  -1.0000000  -1.0000000
 NQMom=    0.0000000   0.0000000
 NMagM=    2.7928460   2.7928460
 Leave Link  101 at Sat Aug 17 22:35:22 2024, MaxMem=   13107200 cpu:       0.1
 (Enter /programs/64bit/g09/g09-gfortran/bin/l103.exe)

 GradGradGradGradGradGradGradGradGradGradGradGradGradGradGradGradGradGrad
 Berny optimization.
 Initialization pass.
                           ----------------------------
                           !    Initial Parameters    !
                           ! (Angstroms and Degrees)  !
 --------------------------                            --------------------------
 ! Name  Definition              Value          Derivative Info.                !
 --------------------------------------------------------------------------------
 ! R1    R(1,2)                  0.7598         calculate D2E/DX2 analytically  !
 --------------------------------------------------------------------------------
 Trust Radius=3.00D-01 FncErr=1.00D-07 GrdErr=1.00D-07
 Number of steps in this run=   2 maximum allowed number of steps=   2.
 GradGradGradGradGradGradGradGradGradGradGradGradGradGradGradGradGradGrad

 Leave Link  103 at Sat Aug 17 22:35:22 2024, MaxMem=   13107200 cpu:       0.0
 (Enter /programs/64bit/g09/g09-gfortran/bin/l202.exe)
                          Input orientation:                          
 ---------------------------------------------------------------------
 Center     Atomic      Atomic             Coordinates (Angstroms)
 Number     Number       Type             X           Y           Z
 ---------------------------------------------------------------------
      1          1           0        0.000000    0.000000   -0.009915
      2          1           0        0.000000    0.000000    0.749915
 ---------------------------------------------------------------------
 Stoichiometry    H2
 Framework group  D*H[C*(H.H)]
 Deg. of freedom     1
 Full point group                 D*H     NOp   8
 Largest Abelian subgroup         D2H     NOp   8
 Largest concise Abelian subgroup C2      NOp   2
                         Standard orientation:                         
 ---------------------------------------------------------------------
 Center     Atomic      Atomic             Coordinates (Angstroms)
 Number     Number       Type             X           Y           Z
 ---------------------------------------------------------------------
      1          1           0        0.000000    0.000000    0.379915
      2          1           0        0.000000    0.000000   -0.379915
 ---------------------------------------------------------------------
 Rotational constants (GHZ):      0.0000000   1737.1139648   1737.1139648
 Leave Link  202 at Sat Aug 17 22:35:22 2024, MaxMem=   13107200 cpu:       0.0
 (Enter /programs/64bit/g09/g09-gfortran/bin/l301.exe)
 Standard basis: Aug-CC-pVDZ (5D, 7F)
 Ernie: Thresh=  0.10000D-02 Tol=  0.10000D-05 Strict=F.
 AO basis set in the form of general basis input (Overlap normalization):
      1 0
 S   3 1.00       0.000000000000
      0.1301000000D+02  0.3349872639D-01
      0.1962000000D+01  0.2348008012D+00
      0.4446000000D+00  0.8136829579D+00
 S   1 1.00       0.000000000000
      0.1220000000D+00  0.1000000000D+01
 S   1 1.00       0.000000000000
      0.2974000000D-01  0.1000000000D+01
 P   1 1.00       0.000000000000
      0.7270000000D+00  0.1000000000D+01
 P   1 1.00       0.000000000000
      0.1410000000D+00  0.1000000000D+01
 ****
      2 0
 S   3 1.00       0.000000000000
      0.1301000000D+02  0.3349872639D-01
      0.1962000000D+01  0.2348008012D+00
      0.4446000000D+00  0.8136829579D+00
 S   1 1.00       0.000000000000
      0.1220000000D+00  0.1000000000D+01
 S   1 1.00       0.000000000000
      0.2974000000D-01  0.1000000000D+01
 P   1 1.00       0.000000000000
      0.7270000000D+00  0.1000000000D+01
 P   1 1.00       0.000000000000
      0.1410000000D+00  0.1000000000D+01
 ****

 There are     5 symmetry adapted basis functions of AG  symmetry.
 There are     0 symmetry adapted basis functions of B1G symmetry.
 There are     2 symmetry adapted basis functions of B2G symmetry.
 There are     2 symmetry adapted basis functions of B3G symmetry.
 There are     0 symmetry adapted basis functions of AU  symmetry.
 There are     5 symmetry adapted basis functions of B1U symmetry.
 There are     2 symmetry adapted basis functions of B2U symmetry.
 There are     2 symmetry adapted basis functions of B3U symmetry.
 Integral buffers will be    131072 words long.
 Raffenetti 2 integral format.
 Two-electron integral symmetry is turned on.
    18 basis functions,    22 primitive gaussians,    18 cartesian basis functions
     1 alpha electrons        1 beta electrons
       nuclear repulsion energy         0.6964408912 Hartrees.
 IExCor=  408 DFT=T Ex+Corr=B3PW91 ExCW=0 ScaHFX=  0.200000
 ScaDFX=  0.800000  0.720000  1.000000  0.810000 ScalE2=  1.000000  1.000000
 IRadAn=      0 IRanWt=     -1 IRanGd=            0 ICorTp=0
 NAtoms=    2 NActive=    2 NUniq=    1 SFac= 3.00D+00 NAtFMM=   80 NAOKFM=F Big=F
 Leave Link  301 at Sat Aug 17 22:35:22 2024, MaxMem=   13107200 cpu:       0.1
 (Enter /programs/64bit/g09/g09-gfortran/bin/l302.exe)
 NPDir=0 NMtPBC=     1 NCelOv=     1 NCel=       1 NClECP=     1 NCelD=      1
         NCelK=      1 NCelE2=     1 NClLst=     1 CellRange=     0.0.
 One-electron integrals computed using PRISM.
 One-electron integral symmetry used in STVInt
 NBasis=    18 RedAO= T  NBF=     5     0     2     2     0     5     2     2
 NBsUse=    18 1.00D-06 NBFU=     5     0     2     2     0     5     2     2
 Precomputing XC quadrature grid using
 IXCGrd= 2 IRadAn=           0 IRanWt=          -1 IRanGd=           0 AccXCQ= 1.00D-10.
 NRdTot=     128 NPtTot=       16336 NUsed=       17271 NTot=       17303
 NSgBfM=    18    18    18    18    18 NAtAll=     2     2.
 Leave Link  302 at Sat Aug 17 22:35:22 2024, MaxMem=   13107200 cpu:       0.2
 (Enter /programs/64bit/g09/g09-gfortran/bin/l303.exe)
 DipDrv:  MaxL=1.
 Leave Link  303 at Sat Aug 17 22:35:22 2024, MaxMem=   13107200 cpu:       0.0
 (Enter /programs/64bit/g09/g09-gfortran/bin/l401.exe)
 Initial guess read from the checkpoint file:  /home/ospite/Desktop/MMfP/Project6
 /H2/g09/DFT/B3PW91/Gau-15069.chk
 B after Tr=     0.000000    0.000000    0.000000
         Rot=    1.000000    0.000000    0.000000    0.000000 Ang=   0.00 deg.
 Guess basis will be translated and rotated to current coordinates.
 Initial guess orbital symmetries:
       Occupied  (SGG)
       Virtual   (SGU) (SGG) (SGU) (PIU) (PIU) (SGG) (PIG) (PIG)
                 (SGU) (SGG) (SGU) (PIU) (PIU) (SGG) (PIG) (PIG)
                 (SGU)
 The electronic state of the initial guess is 1-SGG.
 Leave Link  401 at Sat Aug 17 22:35:22 2024, MaxMem=   13107200 cpu:       0.2
 (Enter /programs/64bit/g09/g09-gfortran/bin/l502.exe)
 Closed shell SCF:
 Requested convergence on RMS density matrix=1.00D-08 within 128 cycles.
 Requested convergence on MAX density matrix=1.00D-06.
 Requested convergence on             energy=1.00D-06.
 No special actions if energy rises.
 Using DIIS extrapolation, IDIIS=  1040.
 Integral symmetry usage will be decided dynamically.
        17240 words used for storage of precomputed grid.
 Keep R1 ints in memory in canonical form, NReq=909671.
 IEnd=       37081 IEndB=       37081 NGot=    13107200 MDV=    13072488
 LenX=    13072488 LenY=    13071606
 Symmetry not used in FoFDir.
 MinBra= 0 MaxBra= 1 Meth= 1.
 IRaf=       0 NMat=   1 IRICut=       1 DoRegI=T DoRafI=F ISym2E= 0 JSym2E=0.

 Cycle   1  Pass 1  IDiag  1:
 E= -1.17419647245119    
 DIIS: error= 3.49D-11 at cycle   1 NSaved=   1.
 NSaved= 1 IEnMin= 1 EnMin= -1.17419647245119     IErMin= 1 ErrMin= 3.49D-11
 ErrMax= 3.49D-11 EMaxC= 1.00D-01 BMatC= 1.13D-20 BMatP= 1.13D-20
 IDIUse=1 WtCom= 1.00D+00 WtEn= 0.00D+00
 Coeff-Com:  0.100D+01
 Coeff:      0.100D+01
 Gap=     0.449 Goal=   None    Shift=    0.000
 RMSDP=9.18D-12 MaxDP=7.29D-11              OVMax= 1.62D-10

 SCF Done:  E(RB3PW91) =  -1.17419647245     A.U. after    1 cycles
             Convg  =    0.9183D-11             -V/T =  2.0754
 KE= 1.091866575300D+00 PE=-3.569809042859D+00 EE= 6.073051038728D-01
 Leave Link  502 at Sat Aug 17 22:35:22 2024, MaxMem=   13107200 cpu:       0.1
 (Enter /programs/64bit/g09/g09-gfortran/bin/l801.exe)
 Range of M.O.s used for correlation:     1    18
 NBasis=    18 NAE=     1 NBE=     1 NFC=     0 NFV=     0
 NROrb=     18 NOA=     1 NOB=     1 NVA=    17 NVB=    17

 **** Warning!!: The largest alpha MO coefficient is  0.29798425D+02

 Leave Link  801 at Sat Aug 17 22:35:23 2024, MaxMem=   13107200 cpu:       0.0
 (Enter /programs/64bit/g09/g09-gfortran/bin/l1101.exe)
 Using compressed storage, NAtomX=     2.
 Will process   3 centers per pass.
 Leave Link 1101 at Sat Aug 17 22:35:23 2024, MaxMem=   13107200 cpu:       0.1
 (Enter /programs/64bit/g09/g09-gfortran/bin/l1102.exe)
 Symmetrizing basis deriv contribution to polar:
 IMax=3 JMax=2 DiffMx= 0.00D+00
 Leave Link 1102 at Sat Aug 17 22:35:23 2024, MaxMem=   13107200 cpu:       0.0
 (Enter /programs/64bit/g09/g09-gfortran/bin/l1110.exe)
 Forming Gx(P) for the SCF density, NAtomX=     2.
 Integral derivatives from FoFDir/FoFCou, PRISM(SPDF).
 Do as many integral derivatives as possible in FoFDir.
 G2DrvN: MDV=      13107080.
 G2DrvN: will do     3 centers at a time, making    1 passes doing MaxLOS=1.
 Calling FoFCou, ICntrl=  3107 FMM=F I1Cent=   0 AccDes= 0.00D+00.
 FoFCou: FMM=F IPFlag=           0 FMFlag=      100000 FMFlg1=           0
         NFxFlg=           0 DoJE=F BraDBF=F KetDBF=F FulRan=T
[...]
  10 2   H  1S          0.00000   0.00000   2.41231
  11        2S          0.00000   0.00000  -7.93392
  12        3S          0.00000   0.00000   0.41188
  13        4PX        -1.05159   0.00000   0.00000
  14        4PY         0.00000  -1.05159   0.00000
  15        4PZ         0.00000   0.00000   2.10709
  16        5PX         0.74456   0.00000   0.00000
  17        5PY         0.00000   0.74456   0.00000
  18        5PZ         0.00000   0.00000  -2.22483
     Density Matrix:
                           1         2         3         4         5
   1 1   H  1S          0.33916
   2        2S          0.13508   0.05380
   3        3S          0.00942   0.00375   0.00026
   4        4PX        -0.00000  -0.00000  -0.00000   0.00000
   5        4PY        -0.00000  -0.00000  -0.00000   0.00000   0.00000
   6        4PZ        -0.01475  -0.00587  -0.00041   0.00000   0.00000
   7        5PX         0.00000   0.00000   0.00000  -0.00000   0.00000
   8        5PY         0.00000   0.00000   0.00000   0.00000  -0.00000
   9        5PZ         0.00389   0.00155   0.00011  -0.00000  -0.00000
  10 2   H  1S          0.33916   0.13508   0.00942  -0.00000  -0.00000
  11        2S          0.13508   0.05380   0.00375  -0.00000  -0.00000
  12        3S          0.00942   0.00375   0.00026  -0.00000  -0.00000
  13        4PX         0.00000   0.00000   0.00000  -0.00000   0.00000
  14        4PY         0.00000   0.00000   0.00000   0.00000  -0.00000
  15        4PZ         0.01475   0.00587   0.00041  -0.00000  -0.00000
  16        5PX        -0.00000  -0.00000  -0.00000   0.00000   0.00000
  17        5PY        -0.00000  -0.00000  -0.00000   0.00000   0.00000
  18        5PZ        -0.00389  -0.00155  -0.00011   0.00000   0.00000
                           6         7         8         9        10
   6        4PZ         0.00064
   7        5PX        -0.00000   0.00000
   8        5PY        -0.00000   0.00000   0.00000
   9        5PZ        -0.00017   0.00000   0.00000   0.00004
  10 2   H  1S         -0.01475   0.00000   0.00000   0.00389   0.33916
  11        2S         -0.00587   0.00000   0.00000   0.00155   0.13508
  12        3S         -0.00041   0.00000   0.00000   0.00011   0.00942
  13        4PX        -0.00000   0.00000   0.00000   0.00000   0.00000
  14        4PY        -0.00000   0.00000   0.00000   0.00000   0.00000
  15        4PZ        -0.00064   0.00000   0.00000   0.00017   0.01475
  16        5PX         0.00000  -0.00000   0.00000  -0.00000  -0.00000
  17        5PY         0.00000   0.00000  -0.00000  -0.00000  -0.00000
  18        5PZ         0.00017  -0.00000  -0.00000  -0.00004  -0.00389
                          11        12        13        14        15
  11        2S          0.05380
  12        3S          0.00375   0.00026
  13        4PX         0.00000   0.00000   0.00000
  14        4PY         0.00000   0.00000   0.00000   0.00000
  15        4PZ         0.00587   0.00041   0.00000   0.00000   0.00064
  16        5PX        -0.00000  -0.00000  -0.00000   0.00000  -0.00000
  17        5PY        -0.00000  -0.00000   0.00000  -0.00000  -0.00000
  18        5PZ        -0.00155  -0.00011  -0.00000  -0.00000  -0.00017
                          16        17        18
  16        5PX         0.00000
  17        5PY         0.00000   0.00000
  18        5PZ         0.00000   0.00000   0.00004
    Full Mulliken population analysis:
                           1         2         3         4         5
   1 1   H  1S          0.33916
   2        2S          0.09251   0.05380
   3        3S          0.00286   0.00265   0.00026
   4        4PX         0.00000   0.00000   0.00000   0.00000
   5        4PY         0.00000   0.00000   0.00000   0.00000   0.00000
   6        4PZ         0.00000   0.00000   0.00000  -0.00000   0.00000
   7        5PX         0.00000   0.00000   0.00000  -0.00000   0.00000
   8        5PY         0.00000   0.00000   0.00000   0.00000  -0.00000
   9        5PZ         0.00000   0.00000   0.00000   0.00000   0.00000
  10 2   H  1S          0.18816   0.07560   0.00270   0.00000   0.00000
  11        2S          0.07560   0.04744   0.00253   0.00000   0.00000
  12        3S          0.00270   0.00253   0.00025   0.00000   0.00000
  13        4PX         0.00000   0.00000   0.00000  -0.00000   0.00000
  14        4PY         0.00000   0.00000   0.00000   0.00000  -0.00000
  15        4PZ         0.00785   0.00098   0.00001   0.00000   0.00000
  16        5PX         0.00000   0.00000   0.00000   0.00000   0.00000
  17        5PY        -0.00000  -0.00000  -0.00000   0.00000   0.00000
  18        5PZ        -0.00190  -0.00067  -0.00001   0.00000  -0.00000
                           6         7         8         9        10
   6        4PZ         0.00064
   7        5PX         0.00000   0.00000
   8        5PY         0.00000   0.00000   0.00000
   9        5PZ        -0.00008  -0.00000   0.00000   0.00004
  10 2   H  1S          0.00785  -0.00000  -0.00000  -0.00190   0.33916
  11        2S          0.00098  -0.00000  -0.00000  -0.00067   0.09251
  12        3S          0.00001  -0.00000  -0.00000  -0.00001   0.00286
  13        4PX         0.00000   0.00000   0.00000  -0.00000   0.00000
  14        4PY         0.00000   0.00000   0.00000  -0.00000   0.00000
  15        4PZ         0.00015  -0.00000  -0.00000   0.00003   0.00000
  16        5PX         0.00000  -0.00000   0.00000   0.00000   0.00000
  17        5PY        -0.00000   0.00000  -0.00000   0.00000   0.00000
  18        5PZ         0.00003   0.00000   0.00000  -0.00003   0.00000
                          11        12        13        14        15
  11        2S          0.05380
  12        3S          0.00265   0.00026
  13        4PX         0.00000   0.00000   0.00000
  14        4PY         0.00000   0.00000   0.00000   0.00000
  15        4PZ         0.00000   0.00000   0.00000   0.00000   0.00064
  16        5PX         0.00000   0.00000  -0.00000   0.00000   0.00000
  17        5PY         0.00000   0.00000   0.00000  -0.00000   0.00000
  18        5PZ         0.00000   0.00000   0.00000   0.00000  -0.00008
                          16        17        18
  16        5PX         0.00000
  17        5PY         0.00000   0.00000
  18        5PZ         0.00000   0.00000   0.00004
     Gross orbital populations:
                           1
   1 1   H  1S          0.70694
   2        2S          0.27484
   3        3S          0.01125
   4        4PX         0.00000
   5        4PY         0.00000
   6        4PZ         0.00959
   7        5PX        -0.00000
   8        5PY        -0.00000
   9        5PZ        -0.00262
  10 2   H  1S          0.70694
  11        2S          0.27484
  12        3S          0.01125
  13        4PX         0.00000
  14        4PY         0.00000
  15        4PZ         0.00959
  16        5PX        -0.00000
  17        5PY        -0.00000
  18        5PZ        -0.00262
          Condensed to atoms (all electrons):
              1          2
     1  H    0.589800   0.410200
     2  H    0.410200   0.589800
 Mulliken atomic charges:
              1
     1  H    0.000000
     2  H    0.000000
 Sum of Mulliken atomic charges =   0.00000
 Mulliken charges with hydrogens summed into heavy atoms:
              1
 Sum of Mulliken charges with hydrogens summed into heavy atoms =   0.00000
 APT atomic charges:
              1
     1  H    0.000000
     2  H    0.000000
 Sum of APT charges=   0.00000
 APT Atomic charges with hydrogens summed into heavy atoms:
              1
     1  H    0.000000
     2  H    0.000000
 Sum of APT charges=   0.00000
 Electronic spatial extent (au):  <R**2>=              5.2232
 Charge=              0.0000 electrons
 Dipole moment (field-independent basis, Debye):
    X=              0.0000    Y=             -0.0000    Z=             -0.0000  Tot=              0.0000
 Quadrupole moment (field-independent basis, Debye-Ang):
   XX=             -2.0627   YY=             -2.0627   ZZ=             -1.5133
   XY=             -0.0000   XZ=             -0.0000   YZ=              0.0000
 Traceless Quadrupole moment (field-independent basis, Debye-Ang):
   XX=             -0.1831   YY=             -0.1831   ZZ=              0.3663
   XY=             -0.0000   XZ=             -0.0000   YZ=              0.0000
 Octapole moment (field-independent basis, Debye-Ang**2):
  XXX=             -0.0000  YYY=             -0.0000  ZZZ=             -0.0000  XYY=             -0.0000
  XXY=              0.0000  XXZ=             -0.0000  XZZ=             -0.0000  YZZ=              0.0000
  YYZ=              0.0000  XYZ=              0.0000
 Hexadecapole moment (field-independent basis, Debye-Ang**3):
 XXXX=             -2.1179 YYYY=             -2.1179 ZZZZ=             -3.1393 XXXY=             -0.0000
 XXXZ=              0.0000 YYYX=             -0.0000 YYYZ=              0.0000 ZZZX=              0.0000
 ZZZY=              0.0000 XXYY=             -0.7060 XXZZ=             -0.8922 YYZZ=             -0.8922
 XXYZ=              0.0000 YYXZ=              0.0000 ZZXY=             -0.0000
 N-N= 6.964408912350D-01 E-N=-3.569809042947D+00  KE= 1.091866575300D+00
 Symmetry AG   KE= 1.091866575300D+00
 Symmetry B1G  KE= 0.000000000000D+00
 Symmetry B2G  KE= 2.954678652234D-34
 Symmetry B3G  KE= 2.954678652234D-34
 Symmetry AU   KE= 0.000000000000D+00
 Symmetry B1U  KE= 6.553178451641D-31
 Symmetry B2U  KE= 4.430517531802D-35
 Symmetry B3U  KE= 4.430517531802D-35
 Orbital energies and kinetic energies (alpha):
                                 1                 2
   1         (SGG)--O         -0.426387          0.545933
   2         (SGU)--V          0.022349          0.135387
   3         (SGG)--V          0.033427          0.109925
   4         (SGU)--V          0.135467          0.400391
   5         (PIU)--V          0.180607          0.348412
   6         (PIU)--V          0.180607          0.348412
   7         (SGG)--V          0.327091          0.521482
   8         (PIG)--V          0.371124          0.478953
   9         (PIG)--V          0.371124          0.478953
  10         (SGU)--V          0.459479          0.728425
  11         (SGG)--V          0.570835          1.068949
  12         (SGU)--V          1.000895          1.811788
  13         (PIU)--V          1.357193          1.927181
  14         (PIU)--V          1.357193          1.927181
  15         (SGG)--V          1.792458          2.462421
  16         (PIG)--V          1.963736          2.509135
  17         (PIG)--V          1.963736          2.509135
  18         (SGU)--V          3.278619          4.474391
 Total kinetic energy from orbitals= 1.091866575300D+00
  Exact polarizability:   4.630  -0.000   4.630   0.000  -0.000   7.073
 Approx polarizability:   4.620  -0.000   4.620  -0.000  -0.000   8.318
 No NMR shielding tensors so no spin-rotation constants.
 Leave Link  601 at Sat Aug 17 22:35:24 2024, MaxMem=   13107200 cpu:       0.1
 (Enter /programs/64bit/g09/g09-gfortran/bin/l701.exe)
 Compute integral second derivatives.
 ... and contract with generalized density number  0.
 Leave Link  701 at Sat Aug 17 22:35:24 2024, MaxMem=   13107200 cpu:       0.1
 (Enter /programs/64bit/g09/g09-gfortran/bin/l702.exe)
 L702 exits ... SP integral derivatives will be done elsewhere.
 Leave Link  702 at Sat Aug 17 22:35:24 2024, MaxMem=   13107200 cpu:       0.0
 (Enter /programs/64bit/g09/g09-gfortran/bin/l703.exe)
 Compute integral second derivatives, UseDBF=F ICtDFT=           0.
 Integral derivatives from FoFDir, PRISM(SPDF).
 Calling FoFJK, ICntrl=    100127 FMM=F ISym2X=1 I1Cent= 0 IOpClX= 0 NMat=1 NMatS=1 NMatT=0.
 FoFCou: FMM=F IPFlag=           0 FMFlag=      100000 FMFlg1=         800
         NFxFlg=           0 DoJE=F BraDBF=F KetDBF=F FulRan=T
         Omega=  0.000000  0.000000  1.000000  0.000000  0.000000 ICntrl=  100127 IOpCl=  0
         NMat0=    1 NMatS0=    1 NMatT0=    0 NMatD0=    1 NMtDS0=    0 NMtDT0=    0
         I1Cent=           0 NGrid=           0.
 Petite list used in FoFCou.
 Leave Link  703 at Sat Aug 17 22:35:24 2024, MaxMem=   13107200 cpu:       0.2
 (Enter /programs/64bit/g09/g09-gfortran/bin/l716.exe)
 Dipole        = 6.16297582D-32 0.00000000D+00-3.62055763D-17
 Polarizability= 4.63010764D+00-1.10115278D-11 4.63010764D+00
                 3.36675368D-10-2.58802767D-10 7.07309802D+00
 Full mass-weighted force constant matrix:
 Low frequencies ---  -74.9254  -74.9254   -0.0002   -0.0001   -0.0001 4372.8021
 Diagonal vibrational polarizability:
        0.0000000       0.0000000       0.0000000
 Harmonic frequencies (cm**-1), IR intensities (KM/Mole), Raman scattering
 activities (A**4/AMU), depolarization ratios for plane and unpolarized
 incident light, reduced masses (AMU), force constants (mDyne/A),
 and normal coordinates:
                     1
                    SGG
 Frequencies --  4372.8021
 Red. masses --     1.0078
 Frc consts  --    11.3542
 IR Inten    --     0.0000
  Atom  AN      X      Y      Z
     1   1    -0.00   0.00   0.71
     2   1     0.00   0.00  -0.71

 -------------------
 - Thermochemistry -
 -------------------
 Temperature   298.150 Kelvin.  Pressure   1.00000 Atm.
 Atom     1 has atomic number  1 and mass   1.00783
 Atom     2 has atomic number  1 and mass   1.00783
 Molecular mass:     2.01565 amu.
 Principal axes and moments of inertia in atomic units:
                           1         2         3
     Eigenvalues --    -0.00000   1.03893   1.03893
           X           -0.00000   1.00000  -0.00000
           Y            0.00000   0.00000   1.00000
           Z            1.00000   0.00000  -0.00000
 This molecule is a prolate symmetric top.
 Rotational symmetry number  2.
 Rotational temperature (Kelvin)     83.36822
 Rotational constant (GHZ):        1737.113965
 Zero-point vibrational energy      26155.2 (Joules/Mol)
                                    6.25123 (Kcal/Mol)
 Vibrational temperatures:   6291.48
          (Kelvin)
 
 Zero-point correction=                           0.009962 (Hartree/Particle)
 Thermal correction to Energy=                    0.012322
 Thermal correction to Enthalpy=                  0.013267
 Thermal correction to Gibbs Free Energy=        -0.001568
 Sum of electronic and zero-point Energies=             -1.164234
 Sum of electronic and thermal Energies=                -1.161874
 Sum of electronic and thermal Enthalpies=              -1.160930
 Sum of electronic and thermal Free Energies=           -1.175765
 
                     E (Thermal)             CV                S
                      KCal/Mol        Cal/Mol-Kelvin    Cal/Mol-Kelvin
 Total                    7.732              4.968             31.222
 Electronic               0.000              0.000              0.000
 Translational            0.889              2.981             28.080
 Rotational               0.592              1.987              3.142
 Vibrational              6.251              0.000              0.000
                       Q            Log10(Q)             Ln(Q)
 Total Bot       0.526382D+01          0.721301          1.660857
 Total V=0       0.201132D+06          5.303482         12.211719
 Vib (Bot)       0.261709D-04         -4.582181        -10.550862
 Vib (V=0)       0.100000D+01          0.000000          0.000000
 Electronic      0.100000D+01          0.000000          0.000000
 Translational   0.112481D+06          5.051078         11.630537
 Rotational      0.178815D+01          0.252404          0.581182
 ***** Axes restored to original set *****
 -------------------------------------------------------------------
 Center     Atomic                   Forces (Hartrees/Bohr)
 Number     Number              X              Y              Z
 -------------------------------------------------------------------
      1        1           0.000000000   -0.000000000   -0.000143111
      2        1          -0.000000000    0.000000000    0.000143111
 -------------------------------------------------------------------
 Cartesian Forces:  Max     0.000143111 RMS     0.000082625
 Force constants in Cartesian coordinates: 
                1             2             3             4             5 
      1 -0.107055D-03
      2  0.000000D+00 -0.107055D-03
      3  0.000000D+00  0.000000D+00  0.364642D+00
      4  0.107055D-03  0.000000D+00  0.000000D+00 -0.107055D-03
      5  0.000000D+00  0.107055D-03  0.000000D+00  0.000000D+00 -0.107055D-03
      6  0.000000D+00  0.000000D+00 -0.364642D+00  0.000000D+00  0.000000D+00
                6 
      6  0.364642D+00
 Force constants in internal coordinates: 
                1 
      1  0.364642D+00
 Leave Link  716 at Sat Aug 17 22:35:24 2024, MaxMem=   13107200 cpu:       0.0
 (Enter /programs/64bit/g09/g09-gfortran/bin/l103.exe)

 GradGradGradGradGradGradGradGradGradGradGradGradGradGradGradGradGradGrad
 Berny optimization.
 Internal  Forces:  Max     0.000143111 RMS     0.000143111
 Search for a local minimum.
 Step number   1 out of a maximum of    2
 All quantities printed in internal units (Hartrees-Bohrs-Radians)
 Second derivative matrix not updated -- analytic derivatives used.
 The second derivative matrix:
                          R1
           R1           0.36464
     Eigenvalues ---    0.36464
 Angle between quadratic step and forces=   0.00 degrees.
 Linear search not attempted -- first point.
 Iteration  1 RMS(Cart)=  0.00027752 RMS(Int)=  0.00000000
 Iteration  2 RMS(Cart)=  0.00000000 RMS(Int)=  0.00000000
 ClnCor:  largest displacement from symmetrization is 5.55D-17 for atom     1.
 Variable       Old X    -DE/DX   Delta X   Delta X   Delta X     New X
                                 (Linear)    (Quad)   (Total)
    R1        1.43587   0.00014   0.00000   0.00039   0.00039   1.43626
         Item               Value     Threshold  Converged?
 Maximum Force            0.000143     0.000450     YES
 RMS     Force            0.000143     0.000300     YES
 Maximum Displacement     0.000196     0.001800     YES
 RMS     Displacement     0.000278     0.001200     YES
 Predicted change in Energy=-2.808323D-08
 Optimization completed.
    -- Stationary point found.
                           ----------------------------
                           !   Optimized Parameters   !
                           ! (Angstroms and Degrees)  !
 --------------------------                            --------------------------
 ! Name  Definition              Value          Derivative Info.                !
 --------------------------------------------------------------------------------
 ! R1    R(1,2)                  0.7598         -DE/DX =    0.0001              !
 --------------------------------------------------------------------------------
 GradGradGradGradGradGradGradGradGradGradGradGradGradGradGradGradGradGrad

 Leave Link  103 at Sat Aug 17 22:35:24 2024, MaxMem=   13107200 cpu:       0.0
 (Enter /programs/64bit/g09/g09-gfortran/bin/l9999.exe)
 1\1\GINC-MOLMOD\Freq\RB3PW91\Aug-CC-pVDZ\H2\OSPITE\17-Aug-2024\0\\#P G
 eom=AllCheck Guess=TCheck SCRF=Check GenChk RB3PW91/Aug-CC-pVDZ Freq\\
 hydrogen (moldecule) with and aug-cc-pVDZ basis function\\0,1\H,0.,0.,
 -0.0099153778\H,0.,0.,0.7499153778\\Version=EM64L-G09RevA.02\State=1-S
 GG\HF=-1.1741965\RMSD=9.183e-12\RMSF=8.262e-05\ZeroPoint=0.009962\Ther
 mal=0.0123224\Dipole=0.,0.,0.\DipoleDeriv=0.,0.,0.,0.,0.,0.,0.,0.,0.,0
 .,0.,0.,0.,0.,0.,0.,0.,0.\Polar=4.6301076,0.,4.6301076,0.,0.,7.073098\
 PG=D*H [C*(H1.H1)]\NImag=0\\-0.00010705,0.,-0.00010705,0.,0.,0.3646416
 3,0.00010705,0.,0.,-0.00010705,0.,0.00010705,0.,0.,-0.00010705,0.,0.,-
 0.36464163,0.,0.,0.36464163\\0.,0.,0.00014311,0.,0.,-0.00014311\\\@


 SOME PEOPLE TRY TO PULL THE WOOL OVER YOUR EYES
 USING THE WRONG YARN.
 Job cpu time:  0 days  0 hours  0 minutes  2.6 seconds.
 File lengths (MBytes):  RWF=      5 Int=      0 D2E=      0 Chk=      1 Scr=      1
 Normal termination of Gaussian 09 at Sat Aug 17 22:35:24 2024.
