 Entering Gaussian System, Link 0=/programs/64bit/g09/g09-gfortran/bin/g09
 Input=h2_cc-pVTZ.com
 Output=h2_cc-pVTZ.log
 Initial command:
 /programs/64bit/g09/g09-gfortran/bin/l1.exe /home/ospite/Desktop/MMfP/Project6/H2/g09/DFT/B3PW91/Gau-15270.inp -scrdir=/home/ospite/Desktop/MMfP/Project6/H2/g09/DFT/B3PW91/
 Entering Link 1 = /programs/64bit/g09/g09-gfortran/bin/l1.exe PID=     15271.
  
 Copyright (c) 1988,1990,1992,1993,1995,1998,2003,2009, Gaussian, Inc.
                  All Rights Reserved.
  
 This is part of the Gaussian(R) 09 program.  It is based on
 the Gaussian(R) 03 system (copyright 2003, Gaussian, Inc.),
 the Gaussian(R) 98 system (copyright 1998, Gaussian, Inc.),
 the Gaussian(R) 94 system (copyright 1995, Gaussian, Inc.),
 the Gaussian 92(TM) system (copyright 1992, Gaussian, Inc.),
 the Gaussian 90(TM) system (copyright 1990, Gaussian, Inc.),
 the Gaussian 88(TM) system (copyright 1988, Gaussian, Inc.),
 the Gaussian 86(TM) system (copyright 1986, Carnegie Mellon
 University), and the Gaussian 82(TM) system (copyright 1983,
 Carnegie Mellon University). Gaussian is a federally registered
 trademark of Gaussian, Inc.
  
 This software contains proprietary and confidential information,
 including trade secrets, belonging to Gaussian, Inc.
  
 This software is provided under written license and may be
 used, copied, transmitted, or stored only in accord with that
 written license.
  
 The following legend is applicable only to US Government
 contracts under FAR:
  
                    RESTRICTED RIGHTS LEGEND
  
 Use, reproduction and disclosure by the US Government is
 subject to restrictions as set forth in subparagraphs (a)
 and (c) of the Commercial Computer Software - Restricted
 Rights clause in FAR 52.227-19.
  
 Gaussian, Inc.
 340 Quinnipiac St., Bldg. 40, Wallingford CT 06492
  
  
 ---------------------------------------------------------------
 Warning -- This program may not be used in any manner that
 competes with the business of Gaussian, Inc. or will provide
 assistance to any competitor of Gaussian, Inc.  The licensee
 of this program is prohibited from giving any competitor of
 Gaussian, Inc. access to this program.  By using this program,
 the user acknowledges that Gaussian, Inc. is engaged in the
 business of creating and licensing software in the field of
 computational chemistry and represents and warrants to the
 licensee that it is not a competitor of Gaussian, Inc. and that
 it will not use this program in any manner prohibited above.
 ---------------------------------------------------------------
  

 Cite this work as:
 Gaussian 09, Revision A.02,
 M. J. Frisch, G. W. Trucks, H. B. Schlegel, G. E. Scuseria, 
 M. A. Robb, J. R. Cheeseman, G. Scalmani, V. Barone, B. Mennucci, 
 G. A. Petersson, H. Nakatsuji, M. Caricato, X. Li, H. P. Hratchian, 
 A. F. Izmaylov, J. Bloino, G. Zheng, J. L. Sonnenberg, M. Hada, 
 M. Ehara, K. Toyota, R. Fukuda, J. Hasegawa, M. Ishida, T. Nakajima, 
 Y. Honda, O. Kitao, H. Nakai, T. Vreven, J. A. Montgomery, Jr., 
 J. E. Peralta, F. Ogliaro, M. Bearpark, J. J. Heyd, E. Brothers, 
 K. N. Kudin, V. N. Staroverov, R. Kobayashi, J. Normand, 
 K. Raghavachari, A. Rendell, J. C. Burant, S. S. Iyengar, J. Tomasi, 
 M. Cossi, N. Rega, J. M. Millam, M. Klene, J. E. Knox, J. B. Cross, 
 V. Bakken, C. Adamo, J. Jaramillo, R. Gomperts, R. E. Stratmann, 
 O. Yazyev, A. J. Austin, R. Cammi, C. Pomelli, J. W. Ochterski, 
 R. L. Martin, K. Morokuma, V. G. Zakrzewski, G. A. Voth, 
 P. Salvador, J. J. Dannenberg, S. Dapprich, A. D. Daniels, 
 O. Farkas, J. B. Foresman, J. V. Ortiz, J. Cioslowski, 
 and D. J. Fox, Gaussian, Inc., Wallingford CT, 2009.
 
 ******************************************
 Gaussian 09:  EM64L-G09RevA.02 11-Jun-2009
                17-Aug-2024 
 ******************************************
 %mem=100MB
 -------------------------------------------
 #p b3pw91/cc-pVTZ opt freq pop=full gfinput
 -------------------------------------------
 1/14=-1,18=20,19=15,26=3,38=1/1,3;
 2/9=110,12=2,17=6,18=5,40=1/2;
 3/5=16,6=1,11=2,16=1,24=10,25=1,30=1,71=1,74=-6/1,2,3;
 4//1;
 5/5=2,38=5/2;
 6/7=3,28=1/1;
 7//1,2,3,16;
 1/14=-1,18=20,19=15/3(2);
 2/9=110/2;
 99//99;
 2/9=110/2;
 3/5=16,6=1,11=2,16=1,25=1,30=1,71=1,74=-6/1,2,3;
 4/5=5,16=3/1;
 5/5=2,38=5/2;
 7//1,2,3,16;
 1/14=-1,18=20,19=15/3(-5);
 2/9=110/2;
 6/7=3,19=2,28=1/1;
 99/9=1/99;
 Leave Link    1 at Sat Aug 17 22:40:57 2024, MaxMem=   13107200 cpu:       0.1
 (Enter /programs/64bit/g09/g09-gfortran/bin/l101.exe)
 -----------------------------------------
 hydogen (molecule) with cc-pVTZ basis set
 -----------------------------------------
 Symbolic Z-matrix:
 Charge =  0 Multiplicity = 1
 H1
 H2                   1    d
       Variables:
  d                     0.74                     
 
 NAtoms=      2 NQM=      2 NQMF=      0 NMic=      0 NMicF=      0 NTot=      2.
                    Isotopes and Nuclear Properties:
 (Nuclear quadrupole moments (NQMom) in fm**2, nuclear magnetic moments (NMagM)
  in nuclear magnetons)

  Atom         1           2
 IAtWgt=           1           1
 AtmWgt=   1.0078250   1.0078250
 NucSpn=           1           1
 AtZEff=   0.0000000   0.0000000
 NQMom=    0.0000000   0.0000000
 NMagM=    2.7928460   2.7928460
 Leave Link  101 at Sat Aug 17 22:40:58 2024, MaxMem=   13107200 cpu:       0.1
 (Enter /programs/64bit/g09/g09-gfortran/bin/l103.exe)

 GradGradGradGradGradGradGradGradGradGradGradGradGradGradGradGradGradGrad
 Berny optimization.
 Initialization pass.
                           ----------------------------
                           !    Initial Parameters    !
                           ! (Angstroms and Degrees)  !
 --------------------------                            --------------------------
 ! Name  Definition              Value          Derivative Info.                !
 --------------------------------------------------------------------------------
 ! R1    R(1,2)                  0.74           estimate D2E/DX2                !
 --------------------------------------------------------------------------------
 Trust Radius=3.00D-01 FncErr=1.00D-07 GrdErr=1.00D-06
 Number of steps in this run=  20 maximum allowed number of steps= 100.
 GradGradGradGradGradGradGradGradGradGradGradGradGradGradGradGradGradGrad

 Leave Link  103 at Sat Aug 17 22:40:58 2024, MaxMem=   13107200 cpu:       0.0
 (Enter /programs/64bit/g09/g09-gfortran/bin/l202.exe)
                          Input orientation:                          
 ---------------------------------------------------------------------
 Center     Atomic      Atomic             Coordinates (Angstroms)
 Number     Number       Type             X           Y           Z
 ---------------------------------------------------------------------
      1          1           0        0.000000    0.000000    0.000000
      2          1           0        0.000000    0.000000    0.740000
 ---------------------------------------------------------------------
 Stoichiometry    H2
 Framework group  D*H[C*(H.H)]
 Deg. of freedom     1
 Full point group                 D*H     NOp   8
 Largest Abelian subgroup         D2H     NOp   8
 Largest concise Abelian subgroup C2      NOp   2
                         Standard orientation:                         
 ---------------------------------------------------------------------
 Center     Atomic      Atomic             Coordinates (Angstroms)
 Number     Number       Type             X           Y           Z
 ---------------------------------------------------------------------
      1          1           0        0.000000    0.000000    0.370000
      2          1           0        0.000000    0.000000   -0.370000
 ---------------------------------------------------------------------
 Rotational constants (GHZ):      0.0000000   1831.4649389   1831.4649389
 Leave Link  202 at Sat Aug 17 22:40:58 2024, MaxMem=   13107200 cpu:       0.0
 (Enter /programs/64bit/g09/g09-gfortran/bin/l301.exe)
 Standard basis: CC-pVTZ (5D, 7F)
 Ernie: Thresh=  0.10000D-02 Tol=  0.10000D-05 Strict=F.
 AO basis set in the form of general basis input (Overlap normalization):
      1 0
 S   3 1.00       0.000000000000
      0.3387000000D+02  0.2549486323D-01
      0.5095000000D+01  0.1903627659D+00
      0.1159000000D+01  0.8521620222D+00
 S   1 1.00       0.000000000000
      0.3258000000D+00  0.1000000000D+01
 S   1 1.00       0.000000000000
      0.1027000000D+00  0.1000000000D+01
 P   1 1.00       0.000000000000
      0.1407000000D+01  0.1000000000D+01
 P   1 1.00       0.000000000000
      0.3880000000D+00  0.1000000000D+01
 D   1 1.00       0.000000000000
      0.1057000000D+01  0.1000000000D+01
 ****
      2 0
 S   3 1.00       0.000000000000
      0.3387000000D+02  0.2549486323D-01
      0.5095000000D+01  0.1903627659D+00
      0.1159000000D+01  0.8521620222D+00
 S   1 1.00       0.000000000000
      0.3258000000D+00  0.1000000000D+01
 S   1 1.00       0.000000000000
      0.1027000000D+00  0.1000000000D+01
 P   1 1.00       0.000000000000
      0.1407000000D+01  0.1000000000D+01
 P   1 1.00       0.000000000000
      0.3880000000D+00  0.1000000000D+01
 D   1 1.00       0.000000000000
      0.1057000000D+01  0.1000000000D+01
 ****

 There are     7 symmetry adapted basis functions of AG  symmetry.
 There are     1 symmetry adapted basis functions of B1G symmetry.
 There are     3 symmetry adapted basis functions of B2G symmetry.
 There are     3 symmetry adapted basis functions of B3G symmetry.
 There are     1 symmetry adapted basis functions of AU  symmetry.
 There are     7 symmetry adapted basis functions of B1U symmetry.
 There are     3 symmetry adapted basis functions of B2U symmetry.
 There are     3 symmetry adapted basis functions of B3U symmetry.
 Integral buffers will be    131072 words long.
 Raffenetti 2 integral format.
 Two-electron integral symmetry is turned on.
    28 basis functions,    34 primitive gaussians,    30 cartesian basis functions
     1 alpha electrons        1 beta electrons
       nuclear repulsion energy         0.7151043359 Hartrees.
 IExCor=  408 DFT=T Ex+Corr=B3PW91 ExCW=0 ScaHFX=  0.200000
 ScaDFX=  0.800000  0.720000  1.000000  0.810000 ScalE2=  1.000000  1.000000
 IRadAn=      0 IRanWt=     -1 IRanGd=            0 ICorTp=0
 NAtoms=    2 NActive=    2 NUniq=    1 SFac= 3.00D+00 NAtFMM=   80 NAOKFM=F Big=F
 Leave Link  301 at Sat Aug 17 22:40:58 2024, MaxMem=   13107200 cpu:       0.1
 (Enter /programs/64bit/g09/g09-gfortran/bin/l302.exe)
 NPDir=0 NMtPBC=     1 NCelOv=     1 NCel=       1 NClECP=     1 NCelD=      1
         NCelK=      1 NCelE2=     1 NClLst=     1 CellRange=     0.0.
 One-electron integrals computed using PRISM.
 One-electron integral symmetry used in STVInt
 NBasis=    28 RedAO= T  NBF=     7     1     3     3     1     7     3     3
 NBsUse=    28 1.00D-06 NBFU=     7     1     3     3     1     7     3     3
 Precomputing XC quadrature grid using
 IXCGrd= 2 IRadAn=           0 IRanWt=          -1 IRanGd=           0 AccXCQ= 1.00D-10.
 NRdTot=     124 NPtTot=       15460 NUsed=       16367 NTot=       16399
 NSgBfM=    30    30    30    30    30 NAtAll=     2     2.
 Leave Link  302 at Sat Aug 17 22:40:58 2024, MaxMem=   13107200 cpu:       0.2
 (Enter /programs/64bit/g09/g09-gfortran/bin/l303.exe)
 DipDrv:  MaxL=1.
 Leave Link  303 at Sat Aug 17 22:40:58 2024, MaxMem=   13107200 cpu:       0.0
 (Enter /programs/64bit/g09/g09-gfortran/bin/l401.exe)
 Harris functional with IExCor=  408 diagonalized for initial guess.
 ExpMin= 1.03D-01 ExpMax= 3.39D+01 ExpMxC= 3.39D+01 IAcc=1 IRadAn=         1 AccDes= 0.00D+00
 HarFok:  IExCor=  408 AccDes= 0.00D+00 IRadAn=         1 IDoV= 1
 ScaDFX=  1.000000  1.000000  1.000000  1.000000
 FoFCou: FMM=F IPFlag=           0 FMFlag=      100000 FMFlg1=           0
         NFxFlg=           0 DoJE=T BraDBF=F KetDBF=T FulRan=T
         Omega=  0.000000  0.000000  1.000000  0.000000  0.000000 ICntrl=     500 IOpCl=  0
         NMat0=    1 NMatS0=    1 NMatT0=    0 NMatD0=    1 NMtDS0=    0 NMtDT0=    0
         I1Cent=           4 NGrid=           0.
 Petite list used in FoFCou.
 Harris En= -1.19218129271318    
 Initial guess orbital symmetries:
       Occupied  (SGG)
       Virtual   (SGU) (SGG) (SGU) (PIU) (PIU) (SGG) (PIG) (PIG)
                 (SGU) (SGU) (SGG) (DLTG) (DLTG) (PIU) (PIU) (SGG)
                 (PIG) (PIG) (DLTU) (DLTU) (PIU) (PIU) (SGU) (PIG)
                 (PIG) (SGG) (SGU)
 The electronic state of the initial guess is 1-SGG.
 Leave Link  401 at Sat Aug 17 22:40:58 2024, MaxMem=   13107200 cpu:       0.2
 (Enter /programs/64bit/g09/g09-gfortran/bin/l502.exe)
 Closed shell SCF:
 Requested convergence on RMS density matrix=1.00D-08 within 128 cycles.
 Requested convergence on MAX density matrix=1.00D-06.
 Requested convergence on             energy=1.00D-06.
 No special actions if energy rises.
 Using DIIS extrapolation, IDIIS=  1040.
 Integral symmetry usage will be decided dynamically.
        16336 words used for storage of precomputed grid.
 Keep R1 ints in memory in canonical form, NReq=1004651.
 IEnd=       37698 IEndB=       37698 NGot=    13107200 MDV=    12978700
 LenX=    12978700 LenY=    12977359
 Symmetry not used in FoFDir.
 MinBra= 0 MaxBra= 2 Meth= 1.
 IRaf=       0 NMat=   1 IRICut=       1 DoRegI=T DoRafI=F ISym2E= 0 JSym2E=0.
 Integral accuracy reduced to 1.0D-05 until final iterations.

 Cycle   1  Pass 0  IDiag  1:
 E= -1.17439751942060    
 DIIS: error= 2.13D-02 at cycle   1 NSaved=   1.
 NSaved= 1 IEnMin= 1 EnMin= -1.17439751942060     IErMin= 1 ErrMin= 2.13D-02
 ErrMax= 2.13D-02 EMaxC= 1.00D-01 BMatC= 3.08D-03 BMatP= 3.08D-03
 IDIUse=3 WtCom= 7.87D-01 WtEn= 2.13D-01
 Coeff-Com:  0.100D+01
 Coeff-En:   0.100D+01
 Coeff:      0.100D+01
 Gap=     0.492 Goal=   None    Shift=    0.000
 GapD=    0.492 DampG=2.000 DampE=0.500 DampFc=1.0000 IDamp=-1.
 RMSDP=1.64D-03 MaxDP=8.70D-03              OVMax= 5.73D-02

 Cycle   2  Pass 0  IDiag  1:
 E= -1.17878353504306     Delta-E=       -0.004386015622 Rises=F Damp=F
 DIIS: error= 4.48D-03 at cycle   2 NSaved=   2.
 NSaved= 2 IEnMin= 2 EnMin= -1.17878353504306     IErMin= 2 ErrMin= 4.48D-03
 ErrMax= 4.48D-03 EMaxC= 1.00D-01 BMatC= 1.03D-04 BMatP= 3.08D-03
 IDIUse=3 WtCom= 9.55D-01 WtEn= 4.48D-02
 Coeff-Com:  0.152D+00 0.848D+00
 Coeff-En:   0.000D+00 0.100D+01
 Coeff:      0.145D+00 0.855D+00
 Gap=     0.502 Goal=   None    Shift=    0.000
 RMSDP=2.41D-04 MaxDP=1.47D-03 DE=-4.39D-03 OVMax= 8.74D-03

 Cycle   3  Pass 0  IDiag  1:
 E= -1.17892952513104     Delta-E=       -0.000145990088 Rises=F Damp=F
 DIIS: error= 4.48D-05 at cycle   3 NSaved=   3.
 NSaved= 3 IEnMin= 3 EnMin= -1.17892952513104     IErMin= 3 ErrMin= 4.48D-05
 ErrMax= 4.48D-05 EMaxC= 1.00D-01 BMatC= 2.14D-08 BMatP= 1.03D-04
 IDIUse=1 WtCom= 1.00D+00 WtEn= 0.00D+00
 Coeff-Com: -0.698D-02-0.259D-01 0.103D+01
 Coeff:     -0.698D-02-0.259D-01 0.103D+01
 Gap=     0.502 Goal=   None    Shift=    0.000
 RMSDP=4.01D-06 MaxDP=2.25D-05 DE=-1.46D-04 OVMax= 1.23D-04

 Initial convergence to 1.0D-05 achieved.  Increase integral accuracy.
 Cycle   4  Pass 1  IDiag  1:
 E= -1.17892618823100     Delta-E=        0.000003336900 Rises=F Damp=F
 DIIS: error= 5.70D-06 at cycle   1 NSaved=   1.
 NSaved= 1 IEnMin= 1 EnMin= -1.17892618823100     IErMin= 1 ErrMin= 5.70D-06
 ErrMax= 5.70D-06 EMaxC= 1.00D-01 BMatC= 2.65D-10 BMatP= 2.65D-10
 IDIUse=1 WtCom= 1.00D+00 WtEn= 0.00D+00
 Coeff-Com:  0.100D+01
 Coeff:      0.100D+01
 Gap=     0.502 Goal=   None    Shift=    0.000
 RMSDP=4.01D-06 MaxDP=2.25D-05 DE= 3.34D-06 OVMax= 3.38D-06

 Cycle   5  Pass 1  IDiag  1:
 E= -1.17892618835405     Delta-E=       -0.000000000123 Rises=F Damp=F
 DIIS: error= 3.59D-07 at cycle   2 NSaved=   2.
 NSaved= 2 IEnMin= 2 EnMin= -1.17892618835405     IErMin= 2 ErrMin= 3.59D-07
 ErrMax= 3.59D-07 EMaxC= 1.00D-01 BMatC= 7.95D-13 BMatP= 2.65D-10
 IDIUse=1 WtCom= 1.00D+00 WtEn= 0.00D+00
 Coeff-Com: -0.328D-01 0.103D+01
 Coeff:     -0.328D-01 0.103D+01
 Gap=     0.502 Goal=   None    Shift=    0.000
 RMSDP=2.28D-08 MaxDP=1.21D-07 DE=-1.23D-10 OVMax= 8.03D-07

 Cycle   6  Pass 1  IDiag  1:
 E= -1.17892618835504     Delta-E=       -0.000000000001 Rises=F Damp=F
 DIIS: error= 6.00D-08 at cycle   3 NSaved=   3.
 NSaved= 3 IEnMin= 3 EnMin= -1.17892618835504     IErMin= 3 ErrMin= 6.00D-08
 ErrMax= 6.00D-08 EMaxC= 1.00D-01 BMatC= 2.27D-14 BMatP= 7.95D-13
 IDIUse=1 WtCom= 1.00D+00 WtEn= 0.00D+00
 Coeff-Com: -0.968D-02 0.133D+00 0.877D+00
 Coeff:     -0.968D-02 0.133D+00 0.877D+00
 Gap=     0.502 Goal=   None    Shift=    0.000
 RMSDP=3.38D-09 MaxDP=1.95D-08 DE=-9.90D-13 OVMax= 1.14D-07

 SCF Done:  E(RB3PW91) =  -1.17892618836     A.U. after    6 cycles
             Convg  =    0.3380D-08             -V/T =  2.0325
 KE= 1.141773670840D+00 PE=-3.649707924323D+00 EE= 6.139037291953D-01
 Leave Link  502 at Sat Aug 17 22:40:59 2024, MaxMem=   13107200 cpu:       0.3
 (Enter /programs/64bit/g09/g09-gfortran/bin/l601.exe)
 Copying SCF densities to generalized density rwf, IOpCl= 0 IROHF=0.

 **********************************************************************

            Population analysis using the SCF density.

 **********************************************************************

 Orbital symmetries:
       Occupied  (SGG)
       Virtual   (SGU) (SGG) (SGU) (PIU) (PIU) (SGG) (PIG) (PIG)
                 (SGU) (SGU) (SGG) (DLTG) (DLTG) (PIU) (PIU) (SGG)
                 (PIG) (PIG) (DLTU) (DLTU) (PIU) (PIU) (SGU) (PIG)
                 (PIG) (SGG) (SGU)
 The electronic state is 1-SGG.
 Alpha  occ. eigenvalues --   -0.43245
 Alpha virt. eigenvalues --    0.06966   0.21024   0.47715   0.51134   0.51134
 Alpha virt. eigenvalues --    0.91624   0.94223   0.94223   1.37757   2.04546
 Alpha virt. eigenvalues --    2.10263   2.87652   2.87652   3.08015   3.08015
 Alpha virt. eigenvalues --    3.36014   3.59848   3.59848   3.79097   3.79097
 Alpha virt. eigenvalues --    3.80644   3.80644   4.35462   5.39515   5.39515
 Alpha virt. eigenvalues --    5.46303   6.55399
     Molecular Orbital Coefficients:
                           1         2         3         4         5
                       (SGG)--O  (SGU)--V  (SGG)--V  (SGU)--V  (PIU)--V
     Eigenvalues --    -0.43245   0.06966   0.21024   0.47715   0.51134
   1 1   H  1S          0.19513   0.09047  -0.08125  -0.14850   0.00000
   2        2S          0.27868  -0.06084  -0.69220  -2.11243   0.00000
   3        3S          0.13622   2.01712   0.84190   2.48004   0.00000
   4        4PX         0.00000   0.00000   0.00000   0.00000  -0.04563
   5        4PY         0.00000   0.00000   0.00000   0.00000   0.00000
   6        4PZ        -0.01070   0.02708   0.01691   0.06362   0.00000
   7        5PX         0.00000   0.00000   0.00000   0.00000   0.57096
   8        5PY         0.00000   0.00000   0.00000   0.00000   0.00000
   9        5PZ        -0.01239   0.09236  -0.03193   0.17714   0.00000
  10        6D 0        0.00038  -0.01199   0.00542  -0.05593   0.00000
  11        6D+1        0.00000   0.00000   0.00000   0.00000   0.00610
  12        6D-1        0.00000   0.00000   0.00000   0.00000   0.00000
  13        6D+2        0.00000  -0.00000  -0.00000   0.00000   0.00000
  14        6D-2        0.00000   0.00000   0.00000   0.00000   0.00000
  15 2   H  1S          0.19513  -0.09047  -0.08125   0.14850   0.00000
  16        2S          0.27868   0.06084  -0.69220   2.11243   0.00000
  17        3S          0.13622  -2.01712   0.84190  -2.48004   0.00000
  18        4PX         0.00000   0.00000   0.00000   0.00000  -0.04563
  19        4PY         0.00000   0.00000   0.00000   0.00000   0.00000
  20        4PZ         0.01070   0.02708  -0.01691   0.06362   0.00000
  21        5PX         0.00000   0.00000   0.00000   0.00000   0.57096
  22        5PY         0.00000   0.00000   0.00000   0.00000   0.00000
  23        5PZ         0.01239   0.09236   0.03193   0.17714   0.00000
  24        6D 0        0.00038   0.01199   0.00542   0.05593   0.00000
  25        6D+1        0.00000   0.00000   0.00000   0.00000  -0.00610
  26        6D-1        0.00000   0.00000   0.00000   0.00000   0.00000
  27        6D+2        0.00000   0.00000  -0.00000  -0.00000   0.00000
  28        6D-2        0.00000   0.00000   0.00000   0.00000   0.00000
                           6         7         8         9        10
                       (PIU)--V  (SGG)--V  (PIG)--V  (PIG)--V  (SGU)--V
     Eigenvalues --     0.51134   0.91624   0.94223   0.94223   1.37757
   1 1   H  1S          0.00000   0.00749   0.00000   0.00000   0.02543
   2        2S          0.00000   0.67642   0.00000   0.00000  12.99488
   3        3S          0.00000  -0.37384   0.00000   0.00000  -0.32573
   4        4PX         0.00000   0.00000  -0.05412   0.00000   0.00000
   5        4PY        -0.04563   0.00000   0.00000  -0.05412   0.00000
   6        4PZ         0.00000  -0.08467   0.00000   0.00000  -0.12712
   7        5PX         0.00000   0.00000   1.39893   0.00000   0.00000
   8        5PY         0.57096   0.00000   0.00000   1.39893   0.00000
   9        5PZ         0.00000   1.04440   0.00000   0.00000  -6.15767
  10        6D 0        0.00000  -0.05885   0.00000   0.00000   0.27230
  11        6D+1        0.00000   0.00000  -0.09742   0.00000   0.00000
  12        6D-1        0.00610   0.00000   0.00000  -0.09742   0.00000
  13        6D+2        0.00000   0.00000   0.00000   0.00000  -0.00000
  14        6D-2        0.00000   0.00000   0.00000   0.00000   0.00000
  15 2   H  1S          0.00000   0.00749   0.00000   0.00000  -0.02543
  16        2S          0.00000   0.67642   0.00000   0.00000 -12.99488
  17        3S          0.00000  -0.37384   0.00000   0.00000   0.32573
  18        4PX         0.00000   0.00000   0.05412   0.00000   0.00000
  19        4PY        -0.04563   0.00000   0.00000   0.05412   0.00000
  20        4PZ         0.00000   0.08467   0.00000   0.00000  -0.12712
  21        5PX         0.00000   0.00000  -1.39893   0.00000   0.00000
  22        5PY         0.57096   0.00000   0.00000  -1.39893   0.00000
  23        5PZ         0.00000  -1.04440   0.00000   0.00000  -6.15767
  24        6D 0        0.00000  -0.05885   0.00000   0.00000  -0.27230
  25        6D+1        0.00000   0.00000  -0.09742   0.00000   0.00000
  26        6D-1       -0.00610   0.00000   0.00000  -0.09742   0.00000
  27        6D+2        0.00000   0.00000   0.00000   0.00000   0.00000
  28        6D-2        0.00000   0.00000   0.00000   0.00000   0.00000
                          11        12        13        14        15
                       (SGU)--V  (SGG)--V  (DLTG)--  (DLTG)--  (PIU)--V
     Eigenvalues --     2.04546   2.10263   2.87652   2.87652   3.08015
   1 1   H  1S         -0.65256  -0.95484   0.00000   0.00000   0.00000
   2        2S          3.40286   1.01171  -0.00000   0.00000   0.00000
   3        3S         -1.41122  -0.40643   0.00000   0.00000   0.00000
   4        4PX         0.00000   0.00000   0.00000   0.00000   0.00000
   5        4PY         0.00000   0.00000   0.00000   0.00000   0.59398
   6        4PZ        -0.52730   0.10526  -0.00000   0.00000   0.00000
   7        5PX         0.00000   0.00000   0.00000   0.00000   0.00000
   8        5PY         0.00000   0.00000   0.00000   0.00000  -0.36829
   9        5PZ        -0.64230  -0.24120   0.00000   0.00000   0.00000
  10        6D 0        0.40272  -0.11055  -0.00000   0.00000   0.00000
  11        6D+1        0.00000   0.00000   0.00000   0.00000   0.00000
  12        6D-1        0.00000   0.00000   0.00000   0.00000  -0.31684
  13        6D+2        0.00000   0.00000   0.60729   0.00000   0.00000
  14        6D-2        0.00000   0.00000   0.00000   0.60729   0.00000
  15 2   H  1S          0.65256  -0.95484   0.00000   0.00000   0.00000
  16        2S         -3.40286   1.01171  -0.00000   0.00000   0.00000
  17        3S          1.41122  -0.40643   0.00000   0.00000   0.00000
  18        4PX         0.00000   0.00000   0.00000   0.00000   0.00000
  19        4PY         0.00000   0.00000   0.00000   0.00000   0.59398
  20        4PZ        -0.52730  -0.10526   0.00000   0.00000   0.00000
  21        5PX         0.00000   0.00000   0.00000   0.00000   0.00000
  22        5PY         0.00000   0.00000   0.00000   0.00000  -0.36829
  23        5PZ        -0.64230   0.24120  -0.00000   0.00000   0.00000
  24        6D 0       -0.40272  -0.11055  -0.00000   0.00000   0.00000
  25        6D+1        0.00000   0.00000   0.00000   0.00000   0.00000
  26        6D-1        0.00000   0.00000   0.00000   0.00000   0.31684
  27        6D+2       -0.00000   0.00000   0.60729   0.00000   0.00000
  28        6D-2        0.00000   0.00000   0.00000   0.60729   0.00000
                          16        17        18        19        20
                       (PIU)--V  (SGG)--V  (PIG)--V  (PIG)--V  (DLTU)--
     Eigenvalues --     3.08015   3.36014   3.59848   3.59848   3.79097
   1 1   H  1S          0.00000   0.05548   0.00000   0.00000   0.00000
   2        2S          0.00000   0.29740   0.00000   0.00000   0.00000
   3        3S          0.00000  -0.16477   0.00000   0.00000   0.00000
   4        4PX         0.59398   0.00000   0.00000  -0.52738   0.00000
   5        4PY         0.00000   0.00000  -0.52738   0.00000   0.00000
   6        4PZ         0.00000  -0.82313   0.00000   0.00000   0.00000
   7        5PX        -0.36829   0.00000   0.00000   1.15046   0.00000
   8        5PY         0.00000   0.00000   1.15046   0.00000   0.00000
   9        5PZ         0.00000   0.87866   0.00000   0.00000   0.00000
  10        6D 0        0.00000  -0.40519   0.00000   0.00000   0.00000
  11        6D+1       -0.31684   0.00000   0.00000  -0.80041   0.00000
  12        6D-1        0.00000   0.00000  -0.80041   0.00000   0.00000
  13        6D+2        0.00000  -0.00000   0.00000   0.00000   0.00000
  14        6D-2        0.00000   0.00000   0.00000   0.00000   0.88097
  15 2   H  1S          0.00000   0.05548   0.00000   0.00000   0.00000
  16        2S          0.00000   0.29740   0.00000   0.00000   0.00000
  17        3S          0.00000  -0.16477   0.00000   0.00000   0.00000
  18        4PX         0.59398   0.00000   0.00000   0.52738   0.00000
  19        4PY         0.00000   0.00000   0.52738   0.00000   0.00000
  20        4PZ         0.00000   0.82313   0.00000   0.00000   0.00000
  21        5PX        -0.36829   0.00000   0.00000  -1.15046   0.00000
  22        5PY         0.00000   0.00000  -1.15046   0.00000   0.00000
  23        5PZ         0.00000  -0.87866   0.00000   0.00000   0.00000
  24        6D 0        0.00000  -0.40519   0.00000   0.00000   0.00000
  25        6D+1        0.31684   0.00000   0.00000  -0.80041   0.00000
  26        6D-1        0.00000   0.00000  -0.80041   0.00000   0.00000
  27        6D+2        0.00000  -0.00000   0.00000   0.00000   0.00000
  28        6D-2        0.00000   0.00000   0.00000   0.00000  -0.88097
                          21        22        23        24        25
                       (DLTU)--  (PIU)--V  (PIU)--V  (SGU)--V  (PIG)--V
     Eigenvalues --     3.79097   3.80644   3.80644   4.35462   5.39515
   1 1   H  1S         -0.00000   0.00000   0.00000   0.68918   0.00000
   2        2S         -0.00000   0.00000   0.00000   7.25156   0.00000
   3        3S          0.00000   0.00000   0.00000   0.11311   0.00000
   4        4PX         0.00000   0.65206   0.00000   0.00000  -1.06011
   5        4PY         0.00000   0.00000   0.65206   0.00000   0.00000
   6        4PZ        -0.00000   0.00000   0.00000   0.20120   0.00000
   7        5PX         0.00000  -0.24816   0.00000   0.00000  -0.49638
   8        5PY         0.00000   0.00000  -0.24816   0.00000   0.00000
   9        5PZ         0.00000   0.00000   0.00000  -3.80063   0.00000
  10        6D 0       -0.00000   0.00000   0.00000   0.95727   0.00000
  11        6D+1        0.00000   0.56724   0.00000   0.00000   1.37557
  12        6D-1        0.00000   0.00000   0.56724   0.00000   0.00000
  13        6D+2        0.88097   0.00000   0.00000   0.00000   0.00000
  14        6D-2        0.00000   0.00000   0.00000   0.00000   0.00000
  15 2   H  1S          0.00000   0.00000   0.00000  -0.68918   0.00000
  16        2S          0.00000   0.00000   0.00000  -7.25156   0.00000
  17        3S         -0.00000   0.00000   0.00000  -0.11311   0.00000
  18        4PX         0.00000   0.65206   0.00000   0.00000   1.06011
  19        4PY         0.00000   0.00000   0.65206   0.00000   0.00000
  20        4PZ        -0.00000   0.00000   0.00000   0.20120   0.00000
  21        5PX         0.00000  -0.24816   0.00000   0.00000   0.49638
  22        5PY         0.00000   0.00000  -0.24816   0.00000   0.00000
  23        5PZ         0.00000   0.00000   0.00000  -3.80063   0.00000
  24        6D 0        0.00000   0.00000   0.00000  -0.95727   0.00000
  25        6D+1        0.00000  -0.56724   0.00000   0.00000   1.37557
  26        6D-1        0.00000   0.00000  -0.56724   0.00000   0.00000
  27        6D+2       -0.88097   0.00000   0.00000  -0.00000   0.00000
  28        6D-2        0.00000   0.00000   0.00000   0.00000   0.00000
                          26        27        28
                       (PIG)--V  (SGG)--V  (SGU)--V
     Eigenvalues --     5.39515   5.46303   6.55399
   1 1   H  1S          0.00000   1.21308   1.55386
   2        2S          0.00000  -0.57059   4.43391
   3        3S          0.00000   0.09071  -0.62411
   4        4PX         0.00000   0.00000   0.00000
   5        4PY        -1.06011   0.00000   0.00000
   6        4PZ         0.00000  -0.04413  -1.97721
   7        5PX         0.00000   0.00000   0.00000
   8        5PY        -0.49638   0.00000   0.00000
   9        5PZ         0.00000   0.73110  -1.70325
  10        6D 0        0.00000  -1.12706   1.02957
  11        6D+1        0.00000   0.00000   0.00000
  12        6D-1        1.37557   0.00000   0.00000
  13        6D+2        0.00000  -0.00000  -0.00000
  14        6D-2        0.00000   0.00000   0.00000
  15 2   H  1S          0.00000   1.21308  -1.55386
  16        2S          0.00000  -0.57059  -4.43391
  17        3S          0.00000   0.09071   0.62411
  18        4PX         0.00000   0.00000   0.00000
  19        4PY         1.06011   0.00000   0.00000
  20        4PZ         0.00000   0.04413  -1.97721
  21        5PX         0.00000   0.00000   0.00000
  22        5PY         0.49638   0.00000   0.00000
  23        5PZ         0.00000  -0.73110  -1.70325
  24        6D 0        0.00000  -1.12706  -1.02957
  25        6D+1        0.00000   0.00000   0.00000
  26        6D-1        1.37557   0.00000   0.00000
  27        6D+2        0.00000  -0.00000   0.00000
  28        6D-2        0.00000   0.00000   0.00000
     Density Matrix:
                           1         2         3         4         5
   1 1   H  1S          0.07615
   2        2S          0.10876   0.15533
   3        3S          0.05316   0.07592   0.03711
   4        4PX        -0.00000  -0.00000  -0.00000   0.00000
   5        4PY        -0.00000  -0.00000  -0.00000   0.00000   0.00000
   6        4PZ        -0.00418  -0.00596  -0.00291   0.00000   0.00000
   7        5PX        -0.00000  -0.00000  -0.00000   0.00000   0.00000
   8        5PY        -0.00000  -0.00000  -0.00000   0.00000   0.00000
   9        5PZ        -0.00483  -0.00690  -0.00337   0.00000   0.00000
  10        6D 0        0.00015   0.00021   0.00010  -0.00000  -0.00000
  11        6D+1        0.00000   0.00000   0.00000  -0.00000   0.00000
  12        6D-1        0.00000   0.00000   0.00000  -0.00000  -0.00000
  13        6D+2        0.00000   0.00000   0.00000  -0.00000  -0.00000
  14        6D-2        0.00000   0.00000   0.00000   0.00000   0.00000
  15 2   H  1S          0.07615   0.10876   0.05316  -0.00000  -0.00000
  16        2S          0.10876   0.15533   0.07592  -0.00000  -0.00000
  17        3S          0.05316   0.07592   0.03711  -0.00000  -0.00000
  18        4PX         0.00000   0.00000   0.00000  -0.00000   0.00000
  19        4PY         0.00000   0.00000   0.00000   0.00000  -0.00000
  20        4PZ         0.00418   0.00596   0.00291  -0.00000  -0.00000
  21        5PX         0.00000   0.00000   0.00000  -0.00000   0.00000
  22        5PY         0.00000   0.00000   0.00000   0.00000  -0.00000
  23        5PZ         0.00483   0.00690   0.00337  -0.00000  -0.00000
  24        6D 0        0.00015   0.00021   0.00010  -0.00000  -0.00000
  25        6D+1        0.00000   0.00000   0.00000  -0.00000   0.00000
  26        6D-1        0.00000   0.00000   0.00000  -0.00000  -0.00000
  27        6D+2        0.00000   0.00000   0.00000  -0.00000  -0.00000
  28        6D-2        0.00000   0.00000   0.00000   0.00000   0.00000
                           6         7         8         9        10
   6        4PZ         0.00023
   7        5PX         0.00000   0.00000
   8        5PY         0.00000   0.00000   0.00000
   9        5PZ         0.00027   0.00000   0.00000   0.00031
  10        6D 0       -0.00001  -0.00000  -0.00000  -0.00001   0.00000
  11        6D+1       -0.00000  -0.00000   0.00000  -0.00000   0.00000
  12        6D-1       -0.00000  -0.00000  -0.00000  -0.00000   0.00000
  13        6D+2       -0.00000  -0.00000  -0.00000  -0.00000   0.00000
  14        6D-2        0.00000   0.00000   0.00000   0.00000   0.00000
  15 2   H  1S         -0.00418  -0.00000  -0.00000  -0.00483   0.00015
  16        2S         -0.00596  -0.00000  -0.00000  -0.00690   0.00021
  17        3S         -0.00291  -0.00000  -0.00000  -0.00337   0.00010
  18        4PX        -0.00000  -0.00000   0.00000  -0.00000   0.00000
  19        4PY        -0.00000   0.00000  -0.00000  -0.00000   0.00000
  20        4PZ        -0.00023  -0.00000  -0.00000  -0.00027   0.00001
  21        5PX        -0.00000  -0.00000   0.00000  -0.00000   0.00000
  22        5PY        -0.00000   0.00000  -0.00000  -0.00000   0.00000
  23        5PZ        -0.00027  -0.00000  -0.00000  -0.00031   0.00001
  24        6D 0       -0.00001  -0.00000  -0.00000  -0.00001   0.00000
  25        6D+1       -0.00000  -0.00000   0.00000  -0.00000   0.00000
  26        6D-1       -0.00000  -0.00000  -0.00000  -0.00000   0.00000
  27        6D+2       -0.00000  -0.00000  -0.00000  -0.00000   0.00000
  28        6D-2        0.00000   0.00000   0.00000   0.00000   0.00000
                          11        12        13        14        15
  11        6D+1        0.00000
  12        6D-1        0.00000   0.00000
  13        6D+2        0.00000   0.00000   0.00000
  14        6D-2        0.00000  -0.00000   0.00000  -0.00000
  15 2   H  1S          0.00000   0.00000   0.00000   0.00000   0.07615
  16        2S          0.00000   0.00000   0.00000   0.00000   0.10876
  17        3S          0.00000   0.00000   0.00000   0.00000   0.05316
  18        4PX         0.00000   0.00000   0.00000  -0.00000   0.00000
  19        4PY         0.00000   0.00000   0.00000  -0.00000   0.00000
  20        4PZ         0.00000   0.00000   0.00000   0.00000   0.00418
  21        5PX         0.00000   0.00000   0.00000  -0.00000   0.00000
  22        5PY         0.00000   0.00000   0.00000  -0.00000   0.00000
  23        5PZ         0.00000   0.00000   0.00000   0.00000   0.00483
  24        6D 0        0.00000   0.00000   0.00000   0.00000   0.00015
  25        6D+1        0.00000   0.00000   0.00000  -0.00000   0.00000
  26        6D-1        0.00000   0.00000   0.00000  -0.00000   0.00000
  27        6D+2        0.00000   0.00000   0.00000   0.00000   0.00000
  28        6D-2        0.00000  -0.00000   0.00000  -0.00000   0.00000
                          16        17        18        19        20
  16        2S          0.15533
  17        3S          0.07592   0.03711
  18        4PX         0.00000   0.00000   0.00000
  19        4PY         0.00000   0.00000   0.00000   0.00000
  20        4PZ         0.00596   0.00291   0.00000   0.00000   0.00023
  21        5PX         0.00000   0.00000   0.00000   0.00000   0.00000
  22        5PY         0.00000   0.00000   0.00000   0.00000   0.00000
  23        5PZ         0.00690   0.00337   0.00000   0.00000   0.00027
  24        6D 0        0.00021   0.00010   0.00000   0.00000   0.00001
  25        6D+1        0.00000   0.00000   0.00000   0.00000   0.00000
  26        6D-1        0.00000   0.00000   0.00000   0.00000   0.00000
  27        6D+2        0.00000   0.00000   0.00000   0.00000   0.00000
  28        6D-2        0.00000   0.00000  -0.00000  -0.00000   0.00000
                          21        22        23        24        25
  21        5PX         0.00000
  22        5PY         0.00000   0.00000
  23        5PZ         0.00000   0.00000   0.00031
  24        6D 0        0.00000   0.00000   0.00001   0.00000
  25        6D+1        0.00000   0.00000   0.00000   0.00000   0.00000
  26        6D-1        0.00000   0.00000   0.00000   0.00000   0.00000
  27        6D+2        0.00000   0.00000   0.00000   0.00000   0.00000
  28        6D-2       -0.00000  -0.00000   0.00000   0.00000   0.00000
                          26        27        28
  26        6D-1        0.00000
  27        6D+2        0.00000   0.00000
  28        6D-2       -0.00000   0.00000  -0.00000
    Full Mulliken population analysis:
                           1         2         3         4         5
   1 1   H  1S          0.07615
   2        2S          0.07682   0.15533
   3        3S          0.01986   0.05990   0.03711
   4        4PX         0.00000   0.00000   0.00000   0.00000
   5        4PY         0.00000   0.00000   0.00000   0.00000   0.00000
   6        4PZ         0.00000   0.00000   0.00000  -0.00000   0.00000
   7        5PX         0.00000   0.00000   0.00000   0.00000   0.00000
   8        5PY         0.00000   0.00000   0.00000   0.00000   0.00000
   9        5PZ         0.00000   0.00000   0.00000  -0.00000   0.00000
  10        6D 0        0.00000   0.00000   0.00000   0.00000   0.00000
  11        6D+1        0.00000   0.00000   0.00000   0.00000   0.00000
  12        6D-1        0.00000   0.00000   0.00000   0.00000   0.00000
  13        6D+2        0.00000   0.00000   0.00000   0.00000   0.00000
  14        6D-2        0.00000   0.00000   0.00000   0.00000   0.00000
  15 2   H  1S          0.02058   0.04630   0.01650   0.00000   0.00000
  16        2S          0.04630   0.11296   0.05141   0.00000   0.00000
  17        3S          0.01650   0.05141   0.03357   0.00000   0.00000
  18        4PX         0.00000   0.00000   0.00000  -0.00000   0.00000
  19        4PY         0.00000   0.00000   0.00000   0.00000  -0.00000
  20        4PZ         0.00171   0.00153   0.00019   0.00000   0.00000
  21        5PX         0.00000   0.00000   0.00000  -0.00000   0.00000
  22        5PY         0.00000   0.00000   0.00000   0.00000  -0.00000
  23        5PZ         0.00274   0.00386   0.00077   0.00000   0.00000
  24        6D 0        0.00007   0.00003   0.00000   0.00000   0.00000
  25        6D+1        0.00000   0.00000   0.00000  -0.00000   0.00000
  26        6D-1        0.00000   0.00000   0.00000   0.00000  -0.00000
  27        6D+2        0.00000   0.00000   0.00000   0.00000   0.00000
  28        6D-2        0.00000   0.00000   0.00000   0.00000   0.00000
                           6         7         8         9        10
   6        4PZ         0.00023
   7        5PX        -0.00000   0.00000
   8        5PY         0.00000   0.00000   0.00000
   9        5PZ         0.00016  -0.00000   0.00000   0.00031
  10        6D 0        0.00000   0.00000   0.00000   0.00000   0.00000
  11        6D+1        0.00000   0.00000   0.00000   0.00000   0.00000
  12        6D-1        0.00000   0.00000   0.00000   0.00000   0.00000
  13        6D+2        0.00000   0.00000   0.00000   0.00000   0.00000
  14        6D-2        0.00000   0.00000   0.00000   0.00000   0.00000
  15 2   H  1S          0.00171   0.00000   0.00000   0.00274   0.00007
  16        2S          0.00153   0.00000   0.00000   0.00386   0.00003
  17        3S          0.00019   0.00000   0.00000   0.00077   0.00000
  18        4PX         0.00000  -0.00000   0.00000   0.00000   0.00000
  19        4PY         0.00000   0.00000  -0.00000   0.00000   0.00000
  20        4PZ         0.00010   0.00000   0.00000   0.00002   0.00000
  21        5PX         0.00000  -0.00000   0.00000   0.00000   0.00000
  22        5PY         0.00000   0.00000  -0.00000   0.00000   0.00000
  23        5PZ         0.00002   0.00000   0.00000  -0.00005  -0.00000
  24        6D 0        0.00000   0.00000   0.00000  -0.00000  -0.00000
  25        6D+1        0.00000  -0.00000   0.00000   0.00000   0.00000
  26        6D-1        0.00000   0.00000  -0.00000   0.00000   0.00000
  27        6D+2        0.00000   0.00000   0.00000   0.00000   0.00000
  28        6D-2        0.00000   0.00000   0.00000   0.00000   0.00000
                          11        12        13        14        15
  11        6D+1        0.00000
  12        6D-1        0.00000   0.00000
  13        6D+2       -0.00000   0.00000   0.00000
  14        6D-2        0.00000   0.00000   0.00000  -0.00000
  15 2   H  1S          0.00000   0.00000   0.00000   0.00000   0.07615
  16        2S          0.00000   0.00000   0.00000   0.00000   0.07682
  17        3S          0.00000   0.00000   0.00000   0.00000   0.01986
  18        4PX        -0.00000   0.00000  -0.00000   0.00000   0.00000
  19        4PY         0.00000  -0.00000   0.00000   0.00000   0.00000
  20        4PZ         0.00000   0.00000   0.00000   0.00000   0.00000
  21        5PX        -0.00000   0.00000  -0.00000   0.00000   0.00000
  22        5PY         0.00000  -0.00000   0.00000   0.00000   0.00000
  23        5PZ         0.00000   0.00000   0.00000   0.00000   0.00000
  24        6D 0        0.00000   0.00000   0.00000   0.00000   0.00000
  25        6D+1       -0.00000   0.00000  -0.00000   0.00000   0.00000
  26        6D-1        0.00000  -0.00000   0.00000   0.00000   0.00000
  27        6D+2       -0.00000   0.00000   0.00000   0.00000   0.00000
  28        6D-2        0.00000   0.00000   0.00000  -0.00000   0.00000
                          16        17        18        19        20
  16        2S          0.15533
  17        3S          0.05990   0.03711
  18        4PX         0.00000   0.00000   0.00000
  19        4PY         0.00000   0.00000   0.00000   0.00000
  20        4PZ         0.00000   0.00000   0.00000   0.00000   0.00023
  21        5PX         0.00000   0.00000   0.00000   0.00000   0.00000
  22        5PY         0.00000   0.00000   0.00000   0.00000   0.00000
  23        5PZ         0.00000   0.00000   0.00000   0.00000   0.00016
  24        6D 0        0.00000   0.00000   0.00000   0.00000   0.00000
  25        6D+1        0.00000   0.00000   0.00000   0.00000   0.00000
  26        6D-1        0.00000   0.00000   0.00000   0.00000   0.00000
  27        6D+2        0.00000   0.00000   0.00000   0.00000   0.00000
  28        6D-2        0.00000   0.00000   0.00000   0.00000   0.00000
                          21        22        23        24        25
  21        5PX         0.00000
  22        5PY         0.00000   0.00000
  23        5PZ         0.00000   0.00000   0.00031
  24        6D 0        0.00000   0.00000   0.00000   0.00000
  25        6D+1        0.00000   0.00000   0.00000   0.00000   0.00000
  26        6D-1        0.00000   0.00000   0.00000   0.00000   0.00000
  27        6D+2        0.00000   0.00000   0.00000   0.00000   0.00000
  28        6D-2        0.00000   0.00000   0.00000   0.00000   0.00000
                          26        27        28
  26        6D-1        0.00000
  27        6D+2        0.00000   0.00000
  28        6D-2        0.00000   0.00000  -0.00000
     Gross orbital populations:
                           1
   1 1   H  1S          0.26072
   2        2S          0.50813
   3        3S          0.21931
   4        4PX         0.00000
   5        4PY         0.00000
   6        4PZ         0.00395
   7        5PX         0.00000
   8        5PY         0.00000
   9        5PZ         0.00780
  10        6D 0        0.00009
  11        6D+1        0.00000
  12        6D-1        0.00000
  13        6D+2        0.00000
  14        6D-2        0.00000
  15 2   H  1S          0.26072
  16        2S          0.50813
  17        3S          0.21931
  18        4PX         0.00000
  19        4PY         0.00000
  20        4PZ         0.00395
  21        5PX         0.00000
  22        5PY         0.00000
  23        5PZ         0.00780
  24        6D 0        0.00009
  25        6D+1       -0.00000
  26        6D-1       -0.00000
  27        6D+2        0.00000
  28        6D-2        0.00000
          Condensed to atoms (all electrons):
              1          2
     1  H    0.582593   0.417407
     2  H    0.417407   0.582593
 Mulliken atomic charges:
              1
     1  H   -0.000000
     2  H   -0.000000
 Sum of Mulliken atomic charges =  -0.00000
 Mulliken charges with hydrogens summed into heavy atoms:
              1
 Sum of Mulliken charges with hydrogens summed into heavy atoms =  -0.00000
 Electronic spatial extent (au):  <R**2>=              5.1729
 Charge=             -0.0000 electrons
 Dipole moment (field-independent basis, Debye):
    X=             -0.0000    Y=             -0.0000    Z=              0.0000  Tot=              0.0000
 Quadrupole moment (field-independent basis, Debye-Ang):
   XX=             -2.0718   YY=             -2.0718   ZZ=             -1.4990
   XY=             -0.0000   XZ=             -0.0000   YZ=              0.0000
 Traceless Quadrupole moment (field-independent basis, Debye-Ang):
   XX=             -0.1909   YY=             -0.1909   ZZ=              0.3819
   XY=             -0.0000   XZ=             -0.0000   YZ=              0.0000
 Octapole moment (field-independent basis, Debye-Ang**2):
  XXX=             -0.0000  YYY=             -0.0000  ZZZ=              0.0000  XYY=             -0.0000
  XXY=              0.0000  XXZ=              0.0000  XZZ=             -0.0000  YZZ=              0.0000
  YYZ=              0.0000  XYZ=              0.0000
 Hexadecapole moment (field-independent basis, Debye-Ang**3):
 XXXX=             -2.0925 YYYY=             -2.0925 ZZZZ=             -2.9050 XXXY=             -0.0000
 XXXZ=              0.0000 YYYX=             -0.0000 YYYZ=              0.0000 ZZZX=              0.0000
 ZZZY=              0.0000 XXYY=             -0.6975 XXZZ=             -0.8497 YYZZ=             -0.8497
 XXYZ=              0.0000 YYXZ=              0.0000 ZZXY=             -0.0000
 N-N= 7.151043359324D-01 E-N=-3.649707847358D+00  KE= 1.141773670840D+00
 Symmetry AG   KE= 1.141773670840D+00
 Symmetry B1G  KE= 3.911682771155D-67
 Symmetry B2G  KE= 6.565916379781D-33
 Symmetry B3G  KE= 6.565916379781D-33
 Symmetry AU   KE= 2.042167420357D-69
 Symmetry B1U  KE= 1.585127876372D-31
 Symmetry B2U  KE= 1.489500704857D-34
 Symmetry B3U  KE= 1.489500704857D-34
 Orbital energies and kinetic energies (alpha):
                                 1                 2
   1 (SGG)--O                 -0.432453          0.570887
   2 (SGU)--V                  0.069657          0.344652
   3 (SGG)--V                  0.210244          0.506489
   4 (SGU)--V                  0.477153          1.027419
   5 (PIU)--V                  0.511344          0.871719
   6 (PIU)--V                  0.511344          0.871719
   7 (SGG)--V                  0.916241          1.254835
   8 (PIG)--V                  0.942227          1.213953
   9 (PIG)--V                  0.942227          1.213953
  10 (SGU)--V                  1.377572          1.577657
  11 (SGU)--V                  2.045458          3.276620
  12 (SGG)--V                  2.102635          3.407280
  13 (DLTG)--V                 2.876517          3.412846
  14 (DLTG)--V                 2.876517          3.412846
  15 (PIU)--V                  3.080147          3.895921
  16 (PIU)--V                  3.080147          3.895921
  17 (SGG)--V                  3.360140          4.223563
  18 (PIG)--V                  3.598484          4.278756
  19 (PIG)--V                  3.598484          4.278756
  20 (DLTU)--V                 3.790969          4.302749
  21 (DLTU)--V                 3.790969          4.302749
  22 (PIU)--V                  3.806441          4.449427
  23 (PIU)--V                  3.806441          4.449427
  24 (SGU)--V                  4.354617          5.086020
  25 (PIG)--V                  5.395154          6.134764
  26 (PIG)--V                  5.395154          6.134764
  27 (SGG)--V                  5.463026          6.463708
  28 (SGU)--V                  6.553987          8.404084
 Total kinetic energy from orbitals= 1.141773670840D+00
 No NMR shielding tensors so no spin-rotation constants.
 Leave Link  601 at Sat Aug 17 22:40:59 2024, MaxMem=   13107200 cpu:       0.1
 (Enter /programs/64bit/g09/g09-gfortran/bin/l701.exe)
 Compute integral first derivatives.
 ... and contract with generalized density number  0.
 Leave Link  701 at Sat Aug 17 22:40:59 2024, MaxMem=   13107200 cpu:       0.1
 (Enter /programs/64bit/g09/g09-gfortran/bin/l702.exe)
 L702 exits ... SP integral derivatives will be done elsewhere.
 Leave Link  702 at Sat Aug 17 22:40:59 2024, MaxMem=   13107200 cpu:       0.0
 (Enter /programs/64bit/g09/g09-gfortran/bin/l703.exe)
 Compute integral first derivatives, UseDBF=F ICtDFT=           0.
 Integral derivatives from FoFDir, PRISM(SPDF).
 Calling FoFJK, ICntrl=      2127 FMM=F ISym2X=1 I1Cent= 0 IOpClX= 0 NMat=1 NMatS=1 NMatT=0.
 FoFCou: FMM=F IPFlag=           0 FMFlag=      100000 FMFlg1=         800
         NFxFlg=           0 DoJE=F BraDBF=F KetDBF=F FulRan=T
         Omega=  0.000000  0.000000  1.000000  0.000000  0.000000 ICntrl=    2127 IOpCl=  0
         NMat0=    1 NMatS0=    1 NMatT0=    0 NMatD0=    1 NMtDS0=    0 NMtDT0=    0
         I1Cent=           0 NGrid=           0.
 Petite list used in FoFCou.
 Leave Link  703 at Sat Aug 17 22:40:59 2024, MaxMem=   13107200 cpu:       0.2
 (Enter /programs/64bit/g09/g09-gfortran/bin/l716.exe)
 Dipole        =-2.58844985D-31-2.40741243D-35 0.00000000D+00
 ***** Axes restored to original set *****
 -------------------------------------------------------------------
 Center     Atomic                   Forces (Hartrees/Bohr)
 Number     Number              X              Y              Z
 -------------------------------------------------------------------
      1        1           0.000000000    0.000000000   -0.003101576
      2        1          -0.000000000   -0.000000000    0.003101576
 -------------------------------------------------------------------
 Cartesian Forces:  Max     0.003101576 RMS     0.001790696
 Leave Link  716 at Sat Aug 17 22:40:59 2024, MaxMem=   13107200 cpu:       0.0
 (Enter /programs/64bit/g09/g09-gfortran/bin/l103.exe)

 GradGradGradGradGradGradGradGradGradGradGradGradGradGradGradGradGradGrad
 Berny optimization.
 Internal  Forces:  Max     0.003101576 RMS     0.003101576
 Search for a local minimum.
 Step number   1 out of a maximum of   20
 All quantities printed in internal units (Hartrees-Bohrs-Radians)
 RMS Force = .31016D-02 SwitMx=.10000D-02 MixMth= 1
 Mixed Optimization -- RFO/linear search
 Second derivative matrix not updated -- first step.
 The second derivative matrix:
                          R1
           R1           0.39139
     Eigenvalues ---    0.39139
 RFO step:  Lambda=-2.45766860D-05 EMin= 3.91394209D-01
 Linear search not attempted -- first point.
 Iteration  1 RMS(Cart)=  0.00560307 RMS(Int)=  0.00000000
 Iteration  2 RMS(Cart)=  0.00000000 RMS(Int)=  0.00000000
 ClnCor:  largest displacement from symmetrization is 2.43D-19 for atom     1.
 Variable       Old X    -DE/DX   Delta X   Delta X   Delta X     New X
                                 (Linear)    (Quad)   (Total)
    R1        1.39840   0.00310   0.00000   0.00792   0.00792   1.40632
         Item               Value     Threshold  Converged?
 Maximum Force            0.003102     0.000450     NO 
 RMS     Force            0.003102     0.000300     NO 
 Maximum Displacement     0.003962     0.001800     NO 
 RMS     Displacement     0.005603     0.001200     NO 
 Predicted change in Energy=-1.228911D-05
 GradGradGradGradGradGradGradGradGradGradGradGradGradGradGradGradGradGrad

 Leave Link  103 at Sat Aug 17 22:40:59 2024, MaxMem=   13107200 cpu:       0.0
 (Enter /programs/64bit/g09/g09-gfortran/bin/l202.exe)
                          Input orientation:                          
 ---------------------------------------------------------------------
 Center     Atomic      Atomic             Coordinates (Angstroms)
 Number     Number       Type             X           Y           Z
 ---------------------------------------------------------------------
      1          1           0        0.000000    0.000000   -0.002097
      2          1           0        0.000000    0.000000    0.742097
 ---------------------------------------------------------------------
 Stoichiometry    H2
 Framework group  D*H[C*(H.H)]
 Deg. of freedom     1
 Full point group                 D*H     NOp   8
 Largest Abelian subgroup         D2H     NOp   8
 Largest concise Abelian subgroup C2      NOp   2
                         Standard orientation:                         
 ---------------------------------------------------------------------
 Center     Atomic      Atomic             Coordinates (Angstroms)
 Number     Number       Type             X           Y           Z
 ---------------------------------------------------------------------
      1          1           0        0.000000    0.000000    0.372097
      2          1           0        0.000000    0.000000   -0.372097
 ---------------------------------------------------------------------
 Rotational constants (GHZ):      0.0000000   1810.8842627   1810.8842627
 Leave Link  202 at Sat Aug 17 22:40:59 2024, MaxMem=   13107200 cpu:       0.0
 (Enter /programs/64bit/g09/g09-gfortran/bin/l301.exe)
 Standard basis: CC-pVTZ (5D, 7F)
 Ernie: Thresh=  0.10000D-02 Tol=  0.10000D-05 Strict=F.
 There are     7 symmetry adapted basis functions of AG  symmetry.
 There are     1 symmetry adapted basis functions of B1G symmetry.
 There are     3 symmetry adapted basis functions of B2G symmetry.
 There are     3 symmetry adapted basis functions of B3G symmetry.
 There are     1 symmetry adapted basis functions of AU  symmetry.
 There are     7 symmetry adapted basis functions of B1U symmetry.
 There are     3 symmetry adapted basis functions of B2U symmetry.
 There are     3 symmetry adapted basis functions of B3U symmetry.
 Integral buffers will be    131072 words long.
 Raffenetti 2 integral format.
 Two-electron integral symmetry is turned on.
    28 basis functions,    34 primitive gaussians,    30 cartesian basis functions
     1 alpha electrons        1 beta electrons
       nuclear repulsion energy         0.7110750722 Hartrees.
 IExCor=  408 DFT=T Ex+Corr=B3PW91 ExCW=0 ScaHFX=  0.200000
 ScaDFX=  0.800000  0.720000  1.000000  0.810000 ScalE2=  1.000000  1.000000
 IRadAn=      0 IRanWt=     -1 IRanGd=            0 ICorTp=0
 NAtoms=    2 NActive=    2 NUniq=    1 SFac= 3.00D+00 NAtFMM=   80 NAOKFM=F Big=F
 Leave Link  301 at Sat Aug 17 22:41:00 2024, MaxMem=   13107200 cpu:       0.1
 (Enter /programs/64bit/g09/g09-gfortran/bin/l302.exe)
 NPDir=0 NMtPBC=     1 NCelOv=     1 NCel=       1 NClECP=     1 NCelD=      1
         NCelK=      1 NCelE2=     1 NClLst=     1 CellRange=     0.0.
 One-electron integrals computed using PRISM.
 One-electron integral symmetry used in STVInt
 NBasis=    28 RedAO= T  NBF=     7     1     3     3     1     7     3     3
 NBsUse=    28 1.00D-06 NBFU=     7     1     3     3     1     7     3     3
 Precomputing XC quadrature grid using
 IXCGrd= 2 IRadAn=           0 IRanWt=          -1 IRanGd=           0 AccXCQ= 1.00D-10.
 NRdTot=     124 NPtTot=       15460 NUsed=       16367 NTot=       16399
 NSgBfM=    30    30    30    30    30 NAtAll=     2     2.
 Leave Link  302 at Sat Aug 17 22:41:00 2024, MaxMem=   13107200 cpu:       0.2
 (Enter /programs/64bit/g09/g09-gfortran/bin/l303.exe)
 DipDrv:  MaxL=1.
 Leave Link  303 at Sat Aug 17 22:41:00 2024, MaxMem=   13107200 cpu:       0.0
 (Enter /programs/64bit/g09/g09-gfortran/bin/l401.exe)
 Initial guess read from the read-write file.
 B after Tr=     0.000000    0.000000    0.000000
         Rot=    1.000000    0.000000    0.000000    0.000000 Ang=   0.00 deg.
 Guess basis will be translated and rotated to current coordinates.
 Initial guess orbital symmetries:
       Occupied  (SGG)
       Virtual   (SGU) (SGG) (SGU) (PIU) (PIU) (SGG) (PIG) (PIG)
                 (SGU) (SGU) (SGG) (DLTG) (DLTG) (PIU) (PIU) (SGG)
                 (PIG) (PIG) (DLTU) (DLTU) (PIU) (PIU) (SGU) (PIG)
                 (PIG) (SGG) (SGU)
 The electronic state of the initial guess is 1-SGG.
 Leave Link  401 at Sat Aug 17 22:41:00 2024, MaxMem=   13107200 cpu:       0.2
 (Enter /programs/64bit/g09/g09-gfortran/bin/l502.exe)
 Closed shell SCF:
 Requested convergence on RMS density matrix=1.00D-08 within 128 cycles.
 Requested convergence on MAX density matrix=1.00D-06.
 Requested convergence on             energy=1.00D-06.
 No special actions if energy rises.
 Using DIIS extrapolation, IDIIS=  1040.
 Integral symmetry usage will be decided dynamically.
        16336 words used for storage of precomputed grid.
 Keep R1 ints in memory in canonical form, NReq=1004651.
 IEnd=       37698 IEndB=       37698 NGot=    13107200 MDV=    12978700
 LenX=    12978700 LenY=    12977359
 Symmetry not used in FoFDir.
 MinBra= 0 MaxBra= 2 Meth= 1.
 IRaf=       0 NMat=   1 IRICut=       1 DoRegI=T DoRafI=F ISym2E= 0 JSym2E=0.

 Cycle   1  Pass 1  IDiag  1:
 E= -1.17893632676501    
 DIIS: error= 4.46D-04 at cycle   1 NSaved=   1.
 NSaved= 1 IEnMin= 1 EnMin= -1.17893632676501     IErMin= 1 ErrMin= 4.46D-04
 ErrMax= 4.46D-04 EMaxC= 1.00D-01 BMatC= 2.38D-06 BMatP= 2.38D-06
 IDIUse=3 WtCom= 9.96D-01 WtEn= 4.46D-03
 Coeff-Com:  0.100D+01
 Coeff-En:   0.100D+01
 Coeff:      0.100D+01
 Gap=     0.503 Goal=   None    Shift=    0.000
 RMSDP=3.44D-05 MaxDP=2.57D-04              OVMax= 1.19D-03

 Cycle   2  Pass 1  IDiag  1:
 E= -1.17893881850908     Delta-E=       -0.000002491744 Rises=F Damp=F
 DIIS: error= 9.87D-05 at cycle   2 NSaved=   2.
 NSaved= 2 IEnMin= 2 EnMin= -1.17893881850908     IErMin= 2 ErrMin= 9.87D-05
 ErrMax= 9.87D-05 EMaxC= 1.00D-01 BMatC= 4.54D-08 BMatP= 2.38D-06
 IDIUse=1 WtCom= 1.00D+00 WtEn= 0.00D+00
 Coeff-Com:  0.944D-01 0.906D+00
 Coeff:      0.944D-01 0.906D+00
 Gap=     0.500 Goal=   None    Shift=    0.000
 RMSDP=5.83D-06 MaxDP=3.67D-05 DE=-2.49D-06 OVMax= 2.04D-04

 Cycle   3  Pass 1  IDiag  1:
 E= -1.17893888710073     Delta-E=       -0.000000068592 Rises=F Damp=F
 DIIS: error= 6.03D-06 at cycle   3 NSaved=   3.
 NSaved= 3 IEnMin= 3 EnMin= -1.17893888710073     IErMin= 3 ErrMin= 6.03D-06
 ErrMax= 6.03D-06 EMaxC= 1.00D-01 BMatC= 3.17D-10 BMatP= 4.54D-08
 IDIUse=1 WtCom= 1.00D+00 WtEn= 0.00D+00
 Coeff-Com: -0.760D-02 0.321D-01 0.975D+00
 Coeff:     -0.760D-02 0.321D-01 0.975D+00
 Gap=     0.500 Goal=   None    Shift=    0.000
 RMSDP=3.45D-07 MaxDP=2.41D-06 DE=-6.86D-08 OVMax= 1.22D-05

 Cycle   4  Pass 1  IDiag  1:
 E= -1.17893888746273     Delta-E=       -0.000000000362 Rises=F Damp=F
 DIIS: error= 1.26D-07 at cycle   4 NSaved=   4.
 NSaved= 4 IEnMin= 4 EnMin= -1.17893888746273     IErMin= 4 ErrMin= 1.26D-07
 ErrMax= 1.26D-07 EMaxC= 1.00D-01 BMatC= 1.53D-13 BMatP= 3.17D-10
 IDIUse=1 WtCom= 1.00D+00 WtEn= 0.00D+00
 Coeff-Com:  0.597D-03-0.166D-02-0.869D-01 0.109D+01
 Coeff:      0.597D-03-0.166D-02-0.869D-01 0.109D+01
 Gap=     0.500 Goal=   None    Shift=    0.000
 RMSDP=6.64D-09 MaxDP=4.10D-08 DE=-3.62D-10 OVMax= 1.87D-07

 SCF Done:  E(RB3PW91) =  -1.17893888746     A.U. after    4 cycles
             Convg  =    0.6639D-08             -V/T =  2.0362
 KE= 1.137704203142D+00 PE=-3.640109531455D+00 EE= 6.123913686337D-01
 Leave Link  502 at Sat Aug 17 22:41:01 2024, MaxMem=   13107200 cpu:       0.3
 (Enter /programs/64bit/g09/g09-gfortran/bin/l701.exe)
 Compute integral first derivatives.
 ... and contract with generalized density number  0.
 Leave Link  701 at Sat Aug 17 22:41:01 2024, MaxMem=   13107200 cpu:       0.2
 (Enter /programs/64bit/g09/g09-gfortran/bin/l702.exe)
 L702 exits ... SP integral derivatives will be done elsewhere.
 Leave Link  702 at Sat Aug 17 22:41:01 2024, MaxMem=   13107200 cpu:       0.0
 (Enter /programs/64bit/g09/g09-gfortran/bin/l703.exe)
 Compute integral first derivatives, UseDBF=F ICtDFT=           0.
 Integral derivatives from FoFDir, PRISM(SPDF).
 Calling FoFJK, ICntrl=      2127 FMM=F ISym2X=1 I1Cent= 0 IOpClX= 0 NMat=1 NMatS=1 NMatT=0.
 FoFCou: FMM=F IPFlag=           0 FMFlag=      100000 FMFlg1=         800
         NFxFlg=           0 DoJE=F BraDBF=F KetDBF=F FulRan=T
         Omega=  0.000000  0.000000  1.000000  0.000000  0.000000 ICntrl=    2127 IOpCl=  0
         NMat0=    1 NMatS0=    1 NMatT0=    0 NMatD0=    1 NMtDS0=    0 NMtDT0=    0
         I1Cent=           0 NGrid=           0.
 Petite list used in FoFCou.
 Leave Link  703 at Sat Aug 17 22:41:01 2024, MaxMem=   13107200 cpu:       0.2
 (Enter /programs/64bit/g09/g09-gfortran/bin/l716.exe)
 Dipole        = 1.97215226D-31 1.80555932D-35 0.00000000D+00
 ***** Axes restored to original set *****
 -------------------------------------------------------------------
 Center     Atomic                   Forces (Hartrees/Bohr)
 Number     Number              X              Y              Z
 -------------------------------------------------------------------
      1        1           0.000000000    0.000000000   -0.000116968
      2        1          -0.000000000   -0.000000000    0.000116968
 -------------------------------------------------------------------
 Cartesian Forces:  Max     0.000116968 RMS     0.000067532
 Leave Link  716 at Sat Aug 17 22:41:01 2024, MaxMem=   13107200 cpu:       0.0
 (Enter /programs/64bit/g09/g09-gfortran/bin/l103.exe)

 GradGradGradGradGradGradGradGradGradGradGradGradGradGradGradGradGradGrad
 Berny optimization.
 Using GEDIIS/GDIIS optimizer.
 Internal  Forces:  Max     0.000116968 RMS     0.000116968
 Search for a local minimum.
 Step number   2 out of a maximum of   20
 All quantities printed in internal units (Hartrees-Bohrs-Radians)
 RMS Force = .11697D-03 SwitMx=.10000D-02 MixMth= 2
 Mixed Optimization -- En-DIIS/RFO-DIIS
 Update second derivatives using D2CorX and points    1    2
 DE= -1.27D-05 DEPred=-1.23D-05 R= 1.03D+00
 SS=  1.41D+00  RLast= 7.92D-03 DXNew= 5.0454D-01 2.3772D-02
 Trust test= 1.03D+00 RLast= 7.92D-03 DXMaxT set to 3.00D-01
 The second derivative matrix:
                          R1
           R1           0.37666
 Use linear search instead of GDIIS.
     Eigenvalues ---    0.37666
 RFO step:  Lambda= 0.00000000D+00 EMin= 3.76657378D-01
 Quartic linear search produced a step of  0.03974.
 Iteration  1 RMS(Cart)=  0.00022267 RMS(Int)=  0.00000000
 Iteration  2 RMS(Cart)=  0.00000000 RMS(Int)=  0.00000000
 ClnCor:  largest displacement from symmetrization is 9.64D-21 for atom     1.
 Variable       Old X    -DE/DX   Delta X   Delta X   Delta X     New X
                                 (Linear)    (Quad)   (Total)
    R1        1.40632   0.00012   0.00031  -0.00000   0.00031   1.40664
         Item               Value     Threshold  Converged?
 Maximum Force            0.000117     0.000450     YES
 RMS     Force            0.000117     0.000300     YES
 Maximum Displacement     0.000157     0.001800     YES
 RMS     Displacement     0.000223     0.001200     YES
 Predicted change in Energy=-1.815829D-08
 Optimization completed.
    -- Stationary point found.
                           ----------------------------
                           !   Optimized Parameters   !
                           ! (Angstroms and Degrees)  !
 --------------------------                            --------------------------
 ! Name  Definition              Value          Derivative Info.                !
 --------------------------------------------------------------------------------
 ! R1    R(1,2)                  0.7442         -DE/DX =    0.0001              !
 --------------------------------------------------------------------------------
 GradGradGradGradGradGradGradGradGradGradGradGradGradGradGradGradGradGrad

 Largest change from initial coordinates is atom    1       0.002 Angstoms.
 Leave Link  103 at Sat Aug 17 22:41:01 2024, MaxMem=   13107200 cpu:       0.0
 (Enter /programs/64bit/g09/g09-gfortran/bin/l202.exe)
                          Input orientation:                          
 ---------------------------------------------------------------------
 Center     Atomic      Atomic             Coordinates (Angstroms)
 Number     Number       Type             X           Y           Z
 ---------------------------------------------------------------------
      1          1           0        0.000000    0.000000   -0.002097
      2          1           0        0.000000    0.000000    0.742097
 ---------------------------------------------------------------------
 Stoichiometry    H2
 Framework group  D*H[C*(H.H)]
 Deg. of freedom     1
 Full point group                 D*H     NOp   8
 Largest Abelian subgroup         D2H     NOp   8
 Largest concise Abelian subgroup C2      NOp   2
                         Standard orientation:                         
 ---------------------------------------------------------------------
 Center     Atomic      Atomic             Coordinates (Angstroms)
 Number     Number       Type             X           Y           Z
 ---------------------------------------------------------------------
      1          1           0        0.000000    0.000000    0.372097
      2          1           0        0.000000    0.000000   -0.372097
 ---------------------------------------------------------------------
 Rotational constants (GHZ):      0.0000000   1810.8842627   1810.8842627
 Leave Link  202 at Sat Aug 17 22:41:01 2024, MaxMem=   13107200 cpu:       0.0
 (Enter /programs/64bit/g09/g09-gfortran/bin/l601.exe)
 Copying SCF densities to generalized density rwf, IOpCl= 0 IROHF=0.

 **********************************************************************

            Population analysis using the SCF density.

 **********************************************************************

 Orbital symmetries:
       Occupied  (SGG)
       Virtual   (SGU) (SGG) (SGU) (PIU) (PIU) (SGG) (PIG) (PIG)
                 (SGU) (SGU) (SGG) (DLTG) (DLTG) (PIU) (PIU) (SGG)
                 (PIG) (PIG) (DLTU) (DLTU) (PIU) (PIU) (SGU) (PIG)
                 (PIG) (SGG) (SGU)
 The electronic state is 1-SGG.
 Alpha  occ. eigenvalues --   -0.43160
 Alpha virt. eigenvalues --    0.06878   0.21051   0.47557   0.51093   0.51093
 Alpha virt. eigenvalues --    0.91492   0.94135   0.94135   1.37613   2.04559
 Alpha virt. eigenvalues --    2.10480   2.87627   2.87627   3.07812   3.07812
 Alpha virt. eigenvalues --    3.35824   3.60170   3.60170   3.78660   3.78660
 Alpha virt. eigenvalues --    3.80244   3.80244   4.34113   5.37934   5.37934
 Alpha virt. eigenvalues --    5.44608   6.53329
     Molecular Orbital Coefficients:
                           1         2         3         4         5
                       (SGG)--O  (SGU)--V  (SGG)--V  (SGU)--V  (PIU)--V
     Eigenvalues --    -0.43160   0.06878   0.21051   0.47557   0.51093
   1 1   H  1S          0.19466   0.09141  -0.08106  -0.14742   0.00000
   2        2S          0.27889  -0.05143  -0.69364  -2.06992   0.00000
   3        3S          0.13682   2.00075   0.84238   2.46975   0.00000
   4        4PX         0.00000   0.00000   0.00000   0.00000   0.00000
   5        4PY         0.00000   0.00000   0.00000   0.00000  -0.04571
   6        4PZ        -0.01066   0.02680   0.01682   0.06246   0.00000
   7        5PX         0.00000   0.00000   0.00000   0.00000   0.00000
   8        5PY         0.00000   0.00000   0.00000   0.00000   0.57149
   9        5PZ        -0.01248   0.08970  -0.03113   0.16300   0.00000
  10        6D 0        0.00040  -0.01183   0.00543  -0.05517   0.00000
  11        6D+1        0.00000   0.00000   0.00000   0.00000   0.00000
  12        6D-1        0.00000   0.00000   0.00000   0.00000   0.00624
  13        6D+2        0.00000  -0.00000   0.00000   0.00000   0.00000
  14        6D-2        0.00000   0.00000   0.00000   0.00000   0.00000
  15 2   H  1S          0.19466  -0.09141  -0.08106   0.14742   0.00000
  16        2S          0.27889   0.05143  -0.69364   2.06992   0.00000
  17        3S          0.13682  -2.00075   0.84238  -2.46975   0.00000
  18        4PX         0.00000   0.00000   0.00000   0.00000   0.00000
  19        4PY         0.00000   0.00000   0.00000   0.00000  -0.04571
  20        4PZ         0.01066   0.02680  -0.01682   0.06246   0.00000
  21        5PX         0.00000   0.00000   0.00000   0.00000   0.00000
  22        5PY         0.00000   0.00000   0.00000   0.00000   0.57149
  23        5PZ         0.01248   0.08970   0.03113   0.16300   0.00000
  24        6D 0        0.00040   0.01183   0.00543   0.05517   0.00000
  25        6D+1        0.00000   0.00000   0.00000   0.00000   0.00000
  26        6D-1        0.00000   0.00000   0.00000   0.00000  -0.00624
  27        6D+2        0.00000   0.00000   0.00000  -0.00000   0.00000
  28        6D-2        0.00000   0.00000   0.00000   0.00000   0.00000
                           6         7         8         9        10
                       (PIU)--V  (SGG)--V  (PIG)--V  (PIG)--V  (SGU)--V
     Eigenvalues --     0.51093   0.91492   0.94135   0.94135   1.37613
   1 1   H  1S          0.00000   0.00673   0.00000   0.00000   0.02476
   2        2S          0.00000   0.67544   0.00000   0.00000  12.77112
   3        3S          0.00000  -0.37312   0.00000   0.00000  -0.29431
   4        4PX        -0.04571   0.00000   0.00000  -0.05518   0.00000
   5        4PY         0.00000   0.00000  -0.05518   0.00000   0.00000
   6        4PZ         0.00000  -0.08479   0.00000   0.00000  -0.12623
   7        5PX         0.57149   0.00000   0.00000   1.39105   0.00000
   8        5PY         0.00000   0.00000   1.39105   0.00000   0.00000
   9        5PZ         0.00000   1.03876   0.00000   0.00000  -6.10309
  10        6D 0        0.00000  -0.05739   0.00000   0.00000   0.27416
  11        6D+1        0.00624   0.00000   0.00000  -0.09542   0.00000
  12        6D-1        0.00000   0.00000  -0.09542   0.00000   0.00000
  13        6D+2        0.00000  -0.00000   0.00000   0.00000  -0.00000
  14        6D-2        0.00000   0.00000   0.00000   0.00000   0.00000
  15 2   H  1S          0.00000   0.00673   0.00000   0.00000  -0.02476
  16        2S          0.00000   0.67544   0.00000   0.00000 -12.77112
  17        3S          0.00000  -0.37312   0.00000   0.00000   0.29431
  18        4PX        -0.04571   0.00000   0.00000   0.05518   0.00000
  19        4PY         0.00000   0.00000   0.05518   0.00000   0.00000
  20        4PZ         0.00000   0.08479   0.00000   0.00000  -0.12623
  21        5PX         0.57149   0.00000   0.00000  -1.39105   0.00000
  22        5PY         0.00000   0.00000  -1.39105   0.00000   0.00000
  23        5PZ         0.00000  -1.03876   0.00000   0.00000  -6.10309
  24        6D 0        0.00000  -0.05739   0.00000   0.00000  -0.27416
  25        6D+1       -0.00624   0.00000   0.00000  -0.09542   0.00000
  26        6D-1        0.00000   0.00000  -0.09542   0.00000   0.00000
  27        6D+2        0.00000  -0.00000   0.00000   0.00000   0.00000
  28        6D-2        0.00000   0.00000   0.00000   0.00000   0.00000
                          11        12        13        14        15
                       (SGU)--V  (SGG)--V  (DLTG)--  (DLTG)--  (PIU)--V
     Eigenvalues --     2.04559   2.10480   2.87627   2.87627   3.07812
   1 1   H  1S         -0.66206  -0.95508  -0.00000   0.00000   0.00000
   2        2S          3.50831   1.01342   0.00000   0.00000   0.00000
   3        3S         -1.40870  -0.40727  -0.00000   0.00000   0.00000
   4        4PX         0.00000   0.00000   0.00000   0.00000   0.00000
   5        4PY         0.00000   0.00000   0.00000   0.00000   0.59094
   6        4PZ        -0.52171   0.10529  -0.00000   0.00000   0.00000
   7        5PX         0.00000   0.00000   0.00000   0.00000   0.00000
   8        5PY         0.00000   0.00000   0.00000   0.00000  -0.36720
   9        5PZ        -0.69952  -0.23725   0.00000   0.00000   0.00000
  10        6D 0        0.40500  -0.11226  -0.00000   0.00000   0.00000
  11        6D+1        0.00000   0.00000   0.00000   0.00000   0.00000
  12        6D-1        0.00000   0.00000   0.00000   0.00000  -0.32093
  13        6D+2        0.00000  -0.00000   0.60822   0.00000   0.00000
  14        6D-2        0.00000   0.00000   0.00000   0.60822   0.00000
  15 2   H  1S          0.66206  -0.95508  -0.00000   0.00000   0.00000
  16        2S         -3.50831   1.01342   0.00000   0.00000   0.00000
  17        3S          1.40870  -0.40727  -0.00000   0.00000   0.00000
  18        4PX         0.00000   0.00000   0.00000   0.00000   0.00000
  19        4PY         0.00000   0.00000   0.00000   0.00000   0.59094
  20        4PZ        -0.52171  -0.10529   0.00000   0.00000   0.00000
  21        5PX         0.00000   0.00000   0.00000   0.00000   0.00000
  22        5PY         0.00000   0.00000   0.00000   0.00000  -0.36720
  23        5PZ        -0.69952   0.23725  -0.00000   0.00000   0.00000
  24        6D 0       -0.40500  -0.11226  -0.00000   0.00000   0.00000
  25        6D+1        0.00000   0.00000   0.00000   0.00000   0.00000
  26        6D-1        0.00000   0.00000   0.00000   0.00000   0.32093
  27        6D+2       -0.00000  -0.00000   0.60822   0.00000   0.00000
  28        6D-2        0.00000   0.00000   0.00000   0.60822   0.00000
                          16        17        18        19        20
                       (PIU)--V  (SGG)--V  (PIG)--V  (PIG)--V  (DLTU)--
     Eigenvalues --     3.07812   3.35824   3.60170   3.60170   3.78660
   1 1   H  1S          0.00000   0.04710   0.00000   0.00000   0.00000
   2        2S          0.00000   0.30107   0.00000   0.00000   0.00000
   3        3S          0.00000  -0.16508   0.00000   0.00000   0.00000
   4        4PX         0.59094   0.00000   0.00000  -0.53712   0.00000
   5        4PY         0.00000   0.00000  -0.53712   0.00000   0.00000
   6        4PZ         0.00000  -0.82559   0.00000   0.00000   0.00000
   7        5PX        -0.36720   0.00000   0.00000   1.14253   0.00000
   8        5PY         0.00000   0.00000   1.14253   0.00000   0.00000
   9        5PZ         0.00000   0.87148   0.00000   0.00000   0.00000
  10        6D 0        0.00000  -0.39618   0.00000   0.00000   0.00000
  11        6D+1       -0.32093   0.00000   0.00000  -0.79136   0.00000
  12        6D-1        0.00000   0.00000  -0.79136   0.00000   0.00000
  13        6D+2        0.00000   0.00000   0.00000   0.00000   0.00000
  14        6D-2        0.00000   0.00000   0.00000   0.00000   0.87815
  15 2   H  1S          0.00000   0.04710   0.00000   0.00000   0.00000
  16        2S          0.00000   0.30107   0.00000   0.00000   0.00000
  17        3S          0.00000  -0.16508   0.00000   0.00000   0.00000
  18        4PX         0.59094   0.00000   0.00000   0.53712   0.00000
  19        4PY         0.00000   0.00000   0.53712   0.00000   0.00000
  20        4PZ         0.00000   0.82559   0.00000   0.00000   0.00000
  21        5PX        -0.36720   0.00000   0.00000  -1.14253   0.00000
  22        5PY         0.00000   0.00000  -1.14253   0.00000   0.00000
  23        5PZ         0.00000  -0.87148   0.00000   0.00000   0.00000
  24        6D 0        0.00000  -0.39618   0.00000   0.00000   0.00000
  25        6D+1        0.32093   0.00000   0.00000  -0.79136   0.00000
  26        6D-1        0.00000   0.00000  -0.79136   0.00000   0.00000
  27        6D+2        0.00000   0.00000   0.00000   0.00000   0.00000
  28        6D-2        0.00000   0.00000   0.00000   0.00000  -0.87815
                          21        22        23        24        25
                       (DLTU)--  (PIU)--V  (PIU)--V  (SGU)--V  (PIG)--V
     Eigenvalues --     3.78660   3.80244   3.80244   4.34113   5.37934
   1 1   H  1S          0.00000   0.00000   0.00000   0.68263   0.00000
   2        2S          0.00000   0.00000   0.00000   7.13745   0.00000
   3        3S          0.00000   0.00000   0.00000   0.12257   0.00000
   4        4PX         0.00000   0.00000   0.65522   0.00000   0.00000
   5        4PY         0.00000   0.65522   0.00000   0.00000  -1.04245
   6        4PZ         0.00000   0.00000   0.00000   0.19622   0.00000
   7        5PX         0.00000   0.00000  -0.25025   0.00000   0.00000
   8        5PY         0.00000  -0.25025   0.00000   0.00000  -0.49124
   9        5PZ        -0.00000   0.00000   0.00000  -3.76987   0.00000
  10        6D 0        0.00000   0.00000   0.00000   0.96013   0.00000
  11        6D+1        0.00000   0.00000   0.56291   0.00000   0.00000
  12        6D-1        0.00000   0.56291   0.00000   0.00000   1.36806
  13        6D+2        0.87815   0.00000   0.00000  -0.00000   0.00000
  14        6D-2        0.00000   0.00000   0.00000   0.00000   0.00000
  15 2   H  1S         -0.00000   0.00000   0.00000  -0.68263   0.00000
  16        2S         -0.00000   0.00000   0.00000  -7.13745   0.00000
  17        3S         -0.00000   0.00000   0.00000  -0.12257   0.00000
  18        4PX         0.00000   0.00000   0.65522   0.00000   0.00000
  19        4PY         0.00000   0.65522   0.00000   0.00000   1.04245
  20        4PZ         0.00000   0.00000   0.00000   0.19622   0.00000
  21        5PX         0.00000   0.00000  -0.25025   0.00000   0.00000
  22        5PY         0.00000  -0.25025   0.00000   0.00000   0.49124
  23        5PZ        -0.00000   0.00000   0.00000  -3.76987   0.00000
  24        6D 0       -0.00000   0.00000   0.00000  -0.96013   0.00000
  25        6D+1        0.00000   0.00000  -0.56291   0.00000   0.00000
  26        6D-1        0.00000  -0.56291   0.00000   0.00000   1.36806
  27        6D+2       -0.87815   0.00000   0.00000   0.00000   0.00000
  28        6D-2        0.00000   0.00000   0.00000   0.00000   0.00000
                          26        27        28
                       (PIG)--V  (SGG)--V  (SGU)--V
     Eigenvalues --     5.37934   5.44608   6.53329
   1 1   H  1S          0.00000   1.20164   1.52241
   2        2S          0.00000  -0.56379   4.41843
   3        3S          0.00000   0.08903  -0.61929
   4        4PX        -1.04245   0.00000   0.00000
   5        4PY         0.00000   0.00000   0.00000
   6        4PZ         0.00000  -0.05653  -1.96624
   7        5PX        -0.49124   0.00000   0.00000
   8        5PY         0.00000   0.00000   0.00000
   9        5PZ         0.00000   0.72649  -1.70703
  10        6D 0        0.00000  -1.12125   1.03346
  11        6D+1        1.36806   0.00000   0.00000
  12        6D-1        0.00000   0.00000   0.00000
  13        6D+2        0.00000  -0.00000   0.00000
  14        6D-2        0.00000   0.00000   0.00000
  15 2   H  1S          0.00000   1.20164  -1.52241
  16        2S          0.00000  -0.56379  -4.41843
  17        3S          0.00000   0.08903   0.61929
  18        4PX         1.04245   0.00000   0.00000
  19        4PY         0.00000   0.00000   0.00000
  20        4PZ         0.00000   0.05653  -1.96624
  21        5PX         0.49124   0.00000   0.00000
  22        5PY         0.00000   0.00000   0.00000
  23        5PZ         0.00000  -0.72649  -1.70703
  24        6D 0        0.00000  -1.12125  -1.03346
[...]
  17        3S          0.01649   0.05159   0.03382   0.00000   0.00000
  18        4PX         0.00000   0.00000   0.00000  -0.00000   0.00000
  19        4PY         0.00000   0.00000   0.00000   0.00000  -0.00000
  20        4PZ         0.00169   0.00153   0.00020   0.00000   0.00000
  21        5PX         0.00000   0.00000   0.00000  -0.00000   0.00000
  22        5PY         0.00000   0.00000   0.00000   0.00000  -0.00000
  23        5PZ         0.00275   0.00390   0.00078   0.00000   0.00000
  24        6D 0        0.00007   0.00003   0.00000   0.00000   0.00000
  25        6D+1        0.00000   0.00000   0.00000  -0.00000   0.00000
  26        6D-1        0.00000   0.00000   0.00000   0.00000  -0.00000
  27        6D+2        0.00000   0.00000   0.00000   0.00000  -0.00000
  28        6D-2        0.00000   0.00000   0.00000  -0.00000   0.00000
                           6         7         8         9        10
   6        4PZ         0.00023
   7        5PX        -0.00000   0.00000
   8        5PY         0.00000   0.00000   0.00000
   9        5PZ         0.00016  -0.00000   0.00000   0.00031
  10        6D 0        0.00000   0.00000   0.00000   0.00000   0.00000
  11        6D+1        0.00000   0.00000   0.00000   0.00000   0.00000
  12        6D-1        0.00000   0.00000   0.00000   0.00000   0.00000
  13        6D+2        0.00000   0.00000   0.00000   0.00000   0.00000
  14        6D-2        0.00000   0.00000   0.00000   0.00000   0.00000
  15 2   H  1S          0.00169   0.00000   0.00000   0.00275   0.00007
  16        2S          0.00153   0.00000   0.00000   0.00390   0.00003
  17        3S          0.00020   0.00000   0.00000   0.00078   0.00000
  18        4PX         0.00000  -0.00000   0.00000   0.00000   0.00000
  19        4PY         0.00000   0.00000  -0.00000   0.00000   0.00000
  20        4PZ         0.00010   0.00000   0.00000   0.00002   0.00000
  21        5PX         0.00000  -0.00000   0.00000   0.00000   0.00000
  22        5PY         0.00000   0.00000  -0.00000   0.00000   0.00000
  23        5PZ         0.00002   0.00000   0.00000  -0.00005  -0.00000
  24        6D 0        0.00000   0.00000   0.00000  -0.00000  -0.00000
  25        6D+1        0.00000  -0.00000   0.00000   0.00000   0.00000
  26        6D-1        0.00000   0.00000  -0.00000   0.00000   0.00000
  27        6D+2        0.00000   0.00000  -0.00000   0.00000   0.00000
  28        6D-2        0.00000  -0.00000   0.00000   0.00000   0.00000
                          11        12        13        14        15
  11        6D+1        0.00000
  12        6D-1        0.00000   0.00000
  13        6D+2        0.00000  -0.00000   0.00000
  14        6D-2        0.00000  -0.00000   0.00000   0.00000
  15 2   H  1S          0.00000   0.00000   0.00000   0.00000   0.07578
  16        2S          0.00000   0.00000   0.00000   0.00000   0.07669
  17        3S          0.00000   0.00000   0.00000   0.00000   0.01990
  18        4PX        -0.00000   0.00000   0.00000  -0.00000   0.00000
  19        4PY         0.00000  -0.00000  -0.00000  -0.00000   0.00000
  20        4PZ         0.00000   0.00000   0.00000   0.00000   0.00000
  21        5PX        -0.00000   0.00000   0.00000  -0.00000   0.00000
  22        5PY         0.00000  -0.00000  -0.00000  -0.00000   0.00000
  23        5PZ         0.00000   0.00000   0.00000   0.00000   0.00000
  24        6D 0        0.00000   0.00000   0.00000   0.00000   0.00000
  25        6D+1       -0.00000   0.00000   0.00000  -0.00000   0.00000
  26        6D-1        0.00000  -0.00000  -0.00000  -0.00000   0.00000
  27        6D+2        0.00000  -0.00000   0.00000   0.00000   0.00000
  28        6D-2        0.00000  -0.00000   0.00000   0.00000   0.00000
                          16        17        18        19        20
  16        2S          0.15556
  17        3S          0.06020   0.03744
  18        4PX         0.00000   0.00000   0.00000
  19        4PY         0.00000   0.00000   0.00000   0.00000
  20        4PZ         0.00000   0.00000   0.00000   0.00000   0.00023
  21        5PX         0.00000   0.00000   0.00000   0.00000   0.00000
  22        5PY         0.00000   0.00000   0.00000   0.00000   0.00000
  23        5PZ         0.00000   0.00000   0.00000   0.00000   0.00016
  24        6D 0        0.00000   0.00000   0.00000   0.00000   0.00000
  25        6D+1        0.00000   0.00000   0.00000   0.00000   0.00000
  26        6D-1        0.00000   0.00000   0.00000   0.00000   0.00000
  27        6D+2        0.00000   0.00000   0.00000   0.00000   0.00000
  28        6D-2        0.00000   0.00000   0.00000   0.00000   0.00000
                          21        22        23        24        25
  21        5PX         0.00000
  22        5PY         0.00000   0.00000
  23        5PZ         0.00000   0.00000   0.00031
  24        6D 0        0.00000   0.00000   0.00000   0.00000
  25        6D+1        0.00000   0.00000   0.00000   0.00000   0.00000
  26        6D-1        0.00000   0.00000   0.00000   0.00000   0.00000
  27        6D+2        0.00000   0.00000   0.00000   0.00000   0.00000
  28        6D-2        0.00000   0.00000   0.00000   0.00000   0.00000
                          26        27        28
  26        6D-1        0.00000
  27        6D+2        0.00000   0.00000
  28        6D-2        0.00000   0.00000   0.00000
     Gross orbital populations:
                           1
   1 1   H  1S          0.25951
   2        2S          0.50817
   3        3S          0.22043
   4        4PX         0.00000
   5        4PY         0.00000
   6        4PZ         0.00392
   7        5PX         0.00000
   8        5PY         0.00000
   9        5PZ         0.00787
  10        6D 0        0.00010
  11        6D+1        0.00000
  12        6D-1        0.00000
  13        6D+2        0.00000
  14        6D-2       -0.00000
  15 2   H  1S          0.25951
  16        2S          0.50817
  17        3S          0.22043
  18        4PX         0.00000
  19        4PY         0.00000
  20        4PZ         0.00392
  21        5PX         0.00000
  22        5PY         0.00000
  23        5PZ         0.00787
  24        6D 0        0.00010
  25        6D+1       -0.00000
  26        6D-1       -0.00000
  27        6D+2        0.00000
  28        6D-2       -0.00000
          Condensed to atoms (all electrons):
              1          2
     1  H    0.583224   0.416776
     2  H    0.416776   0.583224
 Mulliken atomic charges:
              1
     1  H    0.000000
     2  H    0.000000
 Sum of Mulliken atomic charges =   0.00000
 Mulliken charges with hydrogens summed into heavy atoms:
              1
 Sum of Mulliken charges with hydrogens summed into heavy atoms =   0.00000
 APT atomic charges:
              1
     1  H    0.000000
     2  H    0.000000
 Sum of APT charges=   0.00000
 APT Atomic charges with hydrogens summed into heavy atoms:
              1
     1  H    0.000000
     2  H    0.000000
 Sum of APT charges=   0.00000
 Electronic spatial extent (au):  <R**2>=              5.1931
 Charge=              0.0000 electrons
 Dipole moment (field-independent basis, Debye):
    X=              0.0000    Y=              0.0000    Z=             -0.0000  Tot=              0.0000
 Quadrupole moment (field-independent basis, Debye-Ang):
   XX=             -2.0777   YY=             -2.0777   ZZ=             -1.4994
   XY=             -0.0000   XZ=             -0.0000   YZ=              0.0000
 Traceless Quadrupole moment (field-independent basis, Debye-Ang):
   XX=             -0.1928   YY=             -0.1928   ZZ=              0.3856
   XY=             -0.0000   XZ=             -0.0000   YZ=              0.0000
 Octapole moment (field-independent basis, Debye-Ang**2):
  XXX=             -0.0000  YYY=              0.0000  ZZZ=              0.0000  XYY=             -0.0000
  XXY=             -0.0000  XXZ=              0.0000  XZZ=             -0.0000  YZZ=             -0.0000
  YYZ=              0.0000  XYZ=              0.0000
 Hexadecapole moment (field-independent basis, Debye-Ang**3):
 XXXX=             -2.1032 YYYY=             -2.1032 ZZZZ=             -2.9275 XXXY=             -0.0000
 XXXZ=              0.0000 YYYX=             -0.0000 YYYZ=              0.0000 ZZZX=              0.0000
 ZZZY=              0.0000 XXYY=             -0.7011 XXZZ=             -0.8556 YYZZ=             -0.8556
 XXYZ=              0.0000 YYXZ=              0.0000 ZZXY=             -0.0000
 N-N= 7.110750722157D-01 E-N=-3.640109420576D+00  KE= 1.137704207043D+00
 Symmetry AG   KE= 1.137704207043D+00
 Symmetry B1G  KE=-7.802606835037D-68
 Symmetry B2G  KE= 6.410780720821D-33
 Symmetry B3G  KE= 6.410780720821D-33
 Symmetry AU   KE= 2.008814342281D-69
 Symmetry B1U  KE= 7.244358962628D-31
 Symmetry B2U  KE= 1.485484382889D-34
 Symmetry B3U  KE= 1.485484382889D-34
 Orbital energies and kinetic energies (alpha):
                                 1                 2
   1 (SGG)--O                 -0.431596          0.568852
   2 (SGU)--V                  0.068781          0.346104
   3 (SGG)--V                  0.210512          0.506832
   4 (SGU)--V                  0.475567          1.026564
   5 (PIU)--V                  0.510926          0.871183
   6 (PIU)--V                  0.510926          0.871183
   7 (SGG)--V                  0.914921          1.253926
   8 (PIG)--V                  0.941346          1.213742
   9 (PIG)--V                  0.941346          1.213742
  10 (SGU)--V                  1.376133          1.576343
  11 (SGU)--V                  2.045586          3.280718
  12 (SGG)--V                  2.104800          3.409310
  13 (DLTG)--V                 2.876270          3.412093
  14 (DLTG)--V                 2.876270          3.412093
  15 (PIU)--V                  3.078122          3.890632
  16 (PIU)--V                  3.078122          3.890632
  17 (SGG)--V                  3.358237          4.224668
  18 (PIG)--V                  3.601702          4.284677
  19 (PIG)--V                  3.601702          4.284677
  20 (DLTU)--V                 3.786605          4.298618
  21 (DLTU)--V                 3.786605          4.298618
  22 (PIU)--V                  3.802445          4.447764
  23 (PIU)--V                  3.802445          4.447764
  24 (SGU)--V                  4.341134          5.072110
  25 (PIG)--V                  5.379337          6.116336
  26 (PIG)--V                  5.379337          6.116336
  27 (SGG)--V                  5.446079          6.442822
  28 (SGU)--V                  6.533292          8.362465
 Total kinetic energy from orbitals= 1.137704207043D+00
  Exact polarizability:   2.674  -0.000   2.674  -0.000   0.000   6.797
 Approx polarizability:   2.789  -0.000   2.789  -0.000  -0.000   7.937
 No NMR shielding tensors so no spin-rotation constants.
 Leave Link  601 at Sat Aug 17 22:41:05 2024, MaxMem=   13107200 cpu:       0.1
 (Enter /programs/64bit/g09/g09-gfortran/bin/l701.exe)
 Compute integral second derivatives.
 ... and contract with generalized density number  0.
 Leave Link  701 at Sat Aug 17 22:41:05 2024, MaxMem=   13107200 cpu:       0.2
 (Enter /programs/64bit/g09/g09-gfortran/bin/l702.exe)
 L702 exits ... SP integral derivatives will be done elsewhere.
 Leave Link  702 at Sat Aug 17 22:41:06 2024, MaxMem=   13107200 cpu:       0.0
 (Enter /programs/64bit/g09/g09-gfortran/bin/l703.exe)
 Compute integral second derivatives, UseDBF=F ICtDFT=           0.
 Integral derivatives from FoFDir, PRISM(SPDF).
 Calling FoFJK, ICntrl=    100127 FMM=F ISym2X=1 I1Cent= 0 IOpClX= 0 NMat=1 NMatS=1 NMatT=0.
 FoFCou: FMM=F IPFlag=           0 FMFlag=      100000 FMFlg1=         800
         NFxFlg=           0 DoJE=F BraDBF=F KetDBF=F FulRan=T
         Omega=  0.000000  0.000000  1.000000  0.000000  0.000000 ICntrl=  100127 IOpCl=  0
         NMat0=    1 NMatS0=    1 NMatT0=    0 NMatD0=    1 NMtDS0=    0 NMtDT0=    0
         I1Cent=           0 NGrid=           0.
 Petite list used in FoFCou.
 Leave Link  703 at Sat Aug 17 22:41:06 2024, MaxMem=   13107200 cpu:       0.6
 (Enter /programs/64bit/g09/g09-gfortran/bin/l716.exe)
 Dipole        = 4.93038066D-32-2.40741243D-35 7.41242238D-17
 Polarizability= 2.67392799D+00-2.26833153D-16 2.67392799D+00
                -5.55079368D-11 1.03989625D-10 6.79671057D+00
 Full mass-weighted force constant matrix:
 Low frequencies ---  -69.1065  -69.1065   -0.0002    0.0003    0.0003 4414.6030
 Diagonal vibrational polarizability:
        0.0000000       0.0000000       0.0000000
 Harmonic frequencies (cm**-1), IR intensities (KM/Mole), Raman scattering
 activities (A**4/AMU), depolarization ratios for plane and unpolarized
 incident light, reduced masses (AMU), force constants (mDyne/A),
 and normal coordinates:
                     1
                    SGG
 Frequencies --  4414.6030
 Red. masses --     1.0078
 Frc consts  --    11.5723
 IR Inten    --     0.0000
  Atom  AN      X      Y      Z
     1   1    -0.00   0.00   0.71
     2   1     0.00   0.00  -0.71

 -------------------
 - Thermochemistry -
 -------------------
 Temperature   298.150 Kelvin.  Pressure   1.00000 Atm.
 Atom     1 has atomic number  1 and mass   1.00783
 Atom     2 has atomic number  1 and mass   1.00783
 Molecular mass:     2.01565 amu.
 Principal axes and moments of inertia in atomic units:
                           1         2         3
     Eigenvalues --    -0.00000   0.99661   0.99661
           X           -0.00000   1.00000  -0.00000
           Y            0.00000   0.00000   1.00000
           Z            1.00000   0.00000  -0.00000
 This molecule is a prolate symmetric top.
 Rotational symmetry number  2.
 Rotational temperature (Kelvin)     86.90863
 Rotational constant (GHZ):        1810.884263
 Zero-point vibrational energy      26405.2 (Joules/Mol)
                                    6.31099 (Kcal/Mol)
 Vibrational temperatures:   6351.62
          (Kelvin)
 
 Zero-point correction=                           0.010057 (Hartree/Particle)
 Thermal correction to Energy=                    0.012418
 Thermal correction to Enthalpy=                  0.013362
 Thermal correction to Gibbs Free Energy=        -0.001434
 Sum of electronic and zero-point Energies=             -1.168882
 Sum of electronic and thermal Energies=                -1.166521
 Sum of electronic and thermal Enthalpies=              -1.165577
 Sum of electronic and thermal Free Energies=           -1.180373
 
                     E (Thermal)             CV                S
                      KCal/Mol        Cal/Mol-Kelvin    Cal/Mol-Kelvin
 Total                    7.792              4.968             31.140
 Electronic               0.000              0.000              0.000
 Translational            0.889              2.981             28.080
 Rotational               0.592              1.987              3.059
 Vibrational              6.311              0.000              0.000
                       Q            Log10(Q)             Ln(Q)
 Total Bot       0.456495D+01          0.659436          1.518408
 Total V=0       0.192939D+06          5.285420         12.170129
 Vib (Bot)       0.236601D-04         -4.625984        -10.651721
 Vib (V=0)       0.100000D+01          0.000000          0.000000
 Electronic      0.100000D+01          0.000000          0.000000
 Translational   0.112481D+06          5.051078         11.630537
 Rotational      0.171531D+01          0.234342          0.539592
 ***** Axes restored to original set *****
 -------------------------------------------------------------------
 Center     Atomic                   Forces (Hartrees/Bohr)
 Number     Number              X              Y              Z
 -------------------------------------------------------------------
      1        1           0.000000000   -0.000000000   -0.000116971
      2        1          -0.000000000    0.000000000    0.000116971
 -------------------------------------------------------------------
 Cartesian Forces:  Max     0.000116971 RMS     0.000067533
 Force constants in Cartesian coordinates: 
                1             2             3             4             5 
      1 -0.910718D-04
      2  0.000000D+00 -0.910718D-04
      3  0.000000D+00  0.000000D+00  0.371646D+00
      4  0.910718D-04  0.000000D+00  0.000000D+00 -0.910718D-04
      5  0.000000D+00  0.910718D-04  0.000000D+00  0.000000D+00 -0.910718D-04
      6  0.000000D+00  0.000000D+00 -0.371646D+00  0.000000D+00  0.000000D+00
                6 
      6  0.371646D+00
 Force constants in internal coordinates: 
                1 
      1  0.371646D+00
 Leave Link  716 at Sat Aug 17 22:41:06 2024, MaxMem=   13107200 cpu:       0.1
 (Enter /programs/64bit/g09/g09-gfortran/bin/l103.exe)

 GradGradGradGradGradGradGradGradGradGradGradGradGradGradGradGradGradGrad
 Berny optimization.
 Internal  Forces:  Max     0.000116971 RMS     0.000116971
 Search for a local minimum.
 Step number   1 out of a maximum of    2
 All quantities printed in internal units (Hartrees-Bohrs-Radians)
 Second derivative matrix not updated -- analytic derivatives used.
 The second derivative matrix:
                          R1
           R1           0.37165
     Eigenvalues ---    0.37165
 Angle between quadratic step and forces=   0.00 degrees.
 Linear search not attempted -- first point.
 Iteration  1 RMS(Cart)=  0.00022255 RMS(Int)=  0.00000000
 Iteration  2 RMS(Cart)=  0.00000000 RMS(Int)=  0.00000000
 ClnCor:  largest displacement from symmetrization is 2.22D-16 for atom     2.
 Variable       Old X    -DE/DX   Delta X   Delta X   Delta X     New X
                                 (Linear)    (Quad)   (Total)
    R1        1.40632   0.00012   0.00000   0.00031   0.00031   1.40664
         Item               Value     Threshold  Converged?
 Maximum Force            0.000117     0.000450     YES
 RMS     Force            0.000117     0.000300     YES
 Maximum Displacement     0.000157     0.001800     YES
 RMS     Displacement     0.000223     0.001200     YES
 Predicted change in Energy=-1.840746D-08
 Optimization completed.
    -- Stationary point found.
                           ----------------------------
                           !   Optimized Parameters   !
                           ! (Angstroms and Degrees)  !
 --------------------------                            --------------------------
 ! Name  Definition              Value          Derivative Info.                !
 --------------------------------------------------------------------------------
 ! R1    R(1,2)                  0.7442         -DE/DX =    0.0001              !
 --------------------------------------------------------------------------------
 GradGradGradGradGradGradGradGradGradGradGradGradGradGradGradGradGradGrad

 Leave Link  103 at Sat Aug 17 22:41:07 2024, MaxMem=   13107200 cpu:       0.0
 (Enter /programs/64bit/g09/g09-gfortran/bin/l9999.exe)
 1\1\GINC-MOLMOD\Freq\RB3PW91\CC-pVTZ\H2\OSPITE\17-Aug-2024\0\\#P Geom=
 AllCheck Guess=TCheck SCRF=Check GenChk RB3PW91/CC-pVTZ Freq\\hydogen 
 (molecule) with cc-pVTZ basis set\\0,1\H,0.,0.,-0.0020965825\H,0.,0.,0
 .7420965825\\Version=EM64L-G09RevA.02\State=1-SGG\HF=-1.1789389\RMSD=1
 .036e-10\RMSF=6.753e-05\ZeroPoint=0.0100572\Thermal=0.0124177\Dipole=0
 .,0.,0.\DipoleDeriv=0.,0.,0.,0.,0.,0.,0.,0.,0.,0.,0.,0.,0.,0.,0.,0.,0.
 ,0.\Polar=2.673928,0.,2.673928,0.,0.,6.7967106\PG=D*H [C*(H1.H1)]\NIma
 g=0\\-0.00009107,0.,-0.00009107,0.,0.,0.37164638,0.00009107,0.,0.,-0.0
 0009107,0.,0.00009107,0.,0.,-0.00009107,0.,0.,-0.37164638,0.,0.,0.3716
 4638\\0.,0.,0.00011697,0.,0.,-0.00011697\\\@


 SEEN ON A WALL AT THE UNIVERSITY OF ILLINOIS AT CHICAGO CIRCLE:

 TO DO IS TO BE  -- SOCRATES
 TO BE IS TO DO  -- SARTRE
 OO BE DO BE DO  -- SINATRA
 Job cpu time:  0 days  0 hours  0 minutes  4.0 seconds.
 File lengths (MBytes):  RWF=      5 Int=      0 D2E=      0 Chk=      1 Scr=      1
 Normal termination of Gaussian 09 at Sat Aug 17 22:41:07 2024.
