 Entering Gaussian System, Link 0=/programs/64bit/g09/g09-gfortran/bin/g09
 Input=h2_cc-pVQZ.com
 Output=h2_cc-pVQZ.log
 Initial command:
 /programs/64bit/g09/g09-gfortran/bin/l1.exe /home/ospite/Desktop/MMfP/Project6/H2/g09/DFT/B3PW91/Gau-8151.inp -scrdir=/home/ospite/Desktop/MMfP/Project6/H2/g09/DFT/B3PW91/
 Entering Link 1 = /programs/64bit/g09/g09-gfortran/bin/l1.exe PID=      8152.
  
 Copyright (c) 1988,1990,1992,1993,1995,1998,2003,2009, Gaussian, Inc.
                  All Rights Reserved.
  
 This is part of the Gaussian(R) 09 program.  It is based on
 the Gaussian(R) 03 system (copyright 2003, Gaussian, Inc.),
 the Gaussian(R) 98 system (copyright 1998, Gaussian, Inc.),
 the Gaussian(R) 94 system (copyright 1995, Gaussian, Inc.),
 the Gaussian 92(TM) system (copyright 1992, Gaussian, Inc.),
 the Gaussian 90(TM) system (copyright 1990, Gaussian, Inc.),
 the Gaussian 88(TM) system (copyright 1988, Gaussian, Inc.),
 the Gaussian 86(TM) system (copyright 1986, Carnegie Mellon
 University), and the Gaussian 82(TM) system (copyright 1983,
 Carnegie Mellon University). Gaussian is a federally registered
 trademark of Gaussian, Inc.
  
 This software contains proprietary and confidential information,
 including trade secrets, belonging to Gaussian, Inc.
  
 This software is provided under written license and may be
 used, copied, transmitted, or stored only in accord with that
 written license.
  
 The following legend is applicable only to US Government
 contracts under FAR:
  
                    RESTRICTED RIGHTS LEGEND
  
 Use, reproduction and disclosure by the US Government is
 subject to restrictions as set forth in subparagraphs (a)
 and (c) of the Commercial Computer Software - Restricted
 Rights clause in FAR 52.227-19.
  
 Gaussian, Inc.
 340 Quinnipiac St., Bldg. 40, Wallingford CT 06492
  
  
 ---------------------------------------------------------------
 Warning -- This program may not be used in any manner that
 competes with the business of Gaussian, Inc. or will provide
 assistance to any competitor of Gaussian, Inc.  The licensee
 of this program is prohibited from giving any competitor of
 Gaussian, Inc. access to this program.  By using this program,
 the user acknowledges that Gaussian, Inc. is engaged in the
 business of creating and licensing software in the field of
 computational chemistry and represents and warrants to the
 licensee that it is not a competitor of Gaussian, Inc. and that
 it will not use this program in any manner prohibited above.
 ---------------------------------------------------------------
  

 Cite this work as:
 Gaussian 09, Revision A.02,
 M. J. Frisch, G. W. Trucks, H. B. Schlegel, G. E. Scuseria, 
 M. A. Robb, J. R. Cheeseman, G. Scalmani, V. Barone, B. Mennucci, 
 G. A. Petersson, H. Nakatsuji, M. Caricato, X. Li, H. P. Hratchian, 
 A. F. Izmaylov, J. Bloino, G. Zheng, J. L. Sonnenberg, M. Hada, 
 M. Ehara, K. Toyota, R. Fukuda, J. Hasegawa, M. Ishida, T. Nakajima, 
 Y. Honda, O. Kitao, H. Nakai, T. Vreven, J. A. Montgomery, Jr., 
 J. E. Peralta, F. Ogliaro, M. Bearpark, J. J. Heyd, E. Brothers, 
 K. N. Kudin, V. N. Staroverov, R. Kobayashi, J. Normand, 
 K. Raghavachari, A. Rendell, J. C. Burant, S. S. Iyengar, J. Tomasi, 
 M. Cossi, N. Rega, J. M. Millam, M. Klene, J. E. Knox, J. B. Cross, 
 V. Bakken, C. Adamo, J. Jaramillo, R. Gomperts, R. E. Stratmann, 
 O. Yazyev, A. J. Austin, R. Cammi, C. Pomelli, J. W. Ochterski, 
 R. L. Martin, K. Morokuma, V. G. Zakrzewski, G. A. Voth, 
 P. Salvador, J. J. Dannenberg, S. Dapprich, A. D. Daniels, 
 O. Farkas, J. B. Foresman, J. V. Ortiz, J. Cioslowski, 
 and D. J. Fox, Gaussian, Inc., Wallingford CT, 2009.
 
 ******************************************
 Gaussian 09:  EM64L-G09RevA.02 11-Jun-2009
                18-Aug-2024 
 ******************************************
 %mem=100MB
 -------------------------------------------
 #p b3pw91/cc-pVQZ opt freq pop=full gfinput
 -------------------------------------------
 1/14=-1,18=20,19=15,26=3,38=1/1,3;
 2/9=110,12=2,17=6,18=5,40=1/2;
 3/5=16,6=2,11=2,16=1,24=10,25=1,30=1,71=1,74=-6/1,2,3;
 4//1;
 5/5=2,38=5/2;
 6/7=3,28=1/1;
 7//1,2,3,16;
 1/14=-1,18=20,19=15/3(2);
 2/9=110/2;
 99//99;
 2/9=110/2;
 3/5=16,6=2,11=2,16=1,25=1,30=1,71=1,74=-6/1,2,3;
 4/5=5,16=3/1;
 5/5=2,38=5/2;
 7//1,2,3,16;
 1/14=-1,18=20,19=15/3(-5);
 2/9=110/2;
 6/7=3,19=2,28=1/1;
 99/9=1/99;
 Leave Link    1 at Sun Aug 18 15:13:06 2024, MaxMem=   13107200 cpu:       0.1
 (Enter /programs/64bit/g09/g09-gfortran/bin/l101.exe)
 -----------------------------------------
 hydogen (molecule) with cc-pVQZ basis set
 -----------------------------------------
 Symbolic Z-matrix:
 Charge =  0 Multiplicity = 1
 H1
 H2                   1    d
       Variables:
  d                     0.74                     
 
 NAtoms=      2 NQM=      2 NQMF=      0 NMic=      0 NMicF=      0 NTot=      2.
                    Isotopes and Nuclear Properties:
 (Nuclear quadrupole moments (NQMom) in fm**2, nuclear magnetic moments (NMagM)
  in nuclear magnetons)

  Atom         1           2
 IAtWgt=           1           1
 AtmWgt=   1.0078250   1.0078250
 NucSpn=           1           1
 AtZEff=   0.0000000   0.0000000
 NQMom=    0.0000000   0.0000000
 NMagM=    2.7928460   2.7928460
 Leave Link  101 at Sun Aug 18 15:13:06 2024, MaxMem=   13107200 cpu:       0.1
 (Enter /programs/64bit/g09/g09-gfortran/bin/l103.exe)

 GradGradGradGradGradGradGradGradGradGradGradGradGradGradGradGradGradGrad
 Berny optimization.
 Initialization pass.
                           ----------------------------
                           !    Initial Parameters    !
                           ! (Angstroms and Degrees)  !
 --------------------------                            --------------------------
 ! Name  Definition              Value          Derivative Info.                !
 --------------------------------------------------------------------------------
 ! R1    R(1,2)                  0.74           estimate D2E/DX2                !
 --------------------------------------------------------------------------------
 Trust Radius=3.00D-01 FncErr=1.00D-07 GrdErr=1.00D-06
 Number of steps in this run=  20 maximum allowed number of steps= 100.
 GradGradGradGradGradGradGradGradGradGradGradGradGradGradGradGradGradGrad

 Leave Link  103 at Sun Aug 18 15:13:06 2024, MaxMem=   13107200 cpu:       0.0
 (Enter /programs/64bit/g09/g09-gfortran/bin/l202.exe)
                          Input orientation:                          
 ---------------------------------------------------------------------
 Center     Atomic      Atomic             Coordinates (Angstroms)
 Number     Number       Type             X           Y           Z
 ---------------------------------------------------------------------
      1          1           0        0.000000    0.000000    0.000000
      2          1           0        0.000000    0.000000    0.740000
 ---------------------------------------------------------------------
 Stoichiometry    H2
 Framework group  D*H[C*(H.H)]
 Deg. of freedom     1
 Full point group                 D*H     NOp   8
 Largest Abelian subgroup         D2H     NOp   8
 Largest concise Abelian subgroup C2      NOp   2
                         Standard orientation:                         
 ---------------------------------------------------------------------
 Center     Atomic      Atomic             Coordinates (Angstroms)
 Number     Number       Type             X           Y           Z
 ---------------------------------------------------------------------
      1          1           0        0.000000    0.000000    0.370000
      2          1           0        0.000000    0.000000   -0.370000
 ---------------------------------------------------------------------
 Rotational constants (GHZ):      0.0000000   1831.4649389   1831.4649389
 Leave Link  202 at Sun Aug 18 15:13:06 2024, MaxMem=   13107200 cpu:       0.0
 (Enter /programs/64bit/g09/g09-gfortran/bin/l301.exe)
 Standard basis: CC-pVQZ (5D, 7F)
 Ernie: Thresh=  0.10000D-02 Tol=  0.10000D-05 Strict=F.
 AO basis set in the form of general basis input (Overlap normalization):
      1 0
 S   3 1.00       0.000000000000
      0.8264000000D+02  0.2295075779D-01
      0.1241000000D+02  0.1755401181D+00
      0.2824000000D+01  0.8647035510D+00
 S   1 1.00       0.000000000000
      0.7977000000D+00  0.1000000000D+01
 S   1 1.00       0.000000000000
      0.2581000000D+00  0.1000000000D+01
 S   1 1.00       0.000000000000
      0.8989000000D-01  0.1000000000D+01
 P   1 1.00       0.000000000000
      0.2292000000D+01  0.1000000000D+01
 P   1 1.00       0.000000000000
      0.8380000000D+00  0.1000000000D+01
 P   1 1.00       0.000000000000
      0.2920000000D+00  0.1000000000D+01
 D   1 1.00       0.000000000000
      0.2062000000D+01  0.1000000000D+01
 D   1 1.00       0.000000000000
      0.6620000000D+00  0.1000000000D+01
 F   1 1.00       0.000000000000
      0.1397000000D+01  0.1000000000D+01
 ****
      2 0
 S   3 1.00       0.000000000000
      0.8264000000D+02  0.2295075779D-01
      0.1241000000D+02  0.1755401181D+00
      0.2824000000D+01  0.8647035510D+00
 S   1 1.00       0.000000000000
      0.7977000000D+00  0.1000000000D+01
 S   1 1.00       0.000000000000
      0.2581000000D+00  0.1000000000D+01
 S   1 1.00       0.000000000000
      0.8989000000D-01  0.1000000000D+01
 P   1 1.00       0.000000000000
      0.2292000000D+01  0.1000000000D+01
 P   1 1.00       0.000000000000
      0.8380000000D+00  0.1000000000D+01
 P   1 1.00       0.000000000000
      0.2920000000D+00  0.1000000000D+01
 D   1 1.00       0.000000000000
      0.2062000000D+01  0.1000000000D+01
 D   1 1.00       0.000000000000
      0.6620000000D+00  0.1000000000D+01
 F   1 1.00       0.000000000000
      0.1397000000D+01  0.1000000000D+01
 ****

 There are    13 symmetry adapted basis functions of AG  symmetry.
 There are     3 symmetry adapted basis functions of B1G symmetry.
 There are     7 symmetry adapted basis functions of B2G symmetry.
 There are     7 symmetry adapted basis functions of B3G symmetry.
 There are     3 symmetry adapted basis functions of AU  symmetry.
 There are    13 symmetry adapted basis functions of B1U symmetry.
 There are     7 symmetry adapted basis functions of B2U symmetry.
 There are     7 symmetry adapted basis functions of B3U symmetry.
 Integral buffers will be    131072 words long.
 Raffenetti 2 integral format.
 Two-electron integral symmetry is turned on.
    60 basis functions,    74 primitive gaussians,    70 cartesian basis functions
     1 alpha electrons        1 beta electrons
       nuclear repulsion energy         0.7151043359 Hartrees.
 IExCor=  408 DFT=T Ex+Corr=B3PW91 ExCW=0 ScaHFX=  0.200000
 ScaDFX=  0.800000  0.720000  1.000000  0.810000 ScalE2=  1.000000  1.000000
 IRadAn=      0 IRanWt=     -1 IRanGd=            0 ICorTp=0
 NAtoms=    2 NActive=    2 NUniq=    1 SFac= 3.00D+00 NAtFMM=   80 NAOKFM=F Big=F
 Leave Link  301 at Sun Aug 18 15:13:06 2024, MaxMem=   13107200 cpu:       0.1
 (Enter /programs/64bit/g09/g09-gfortran/bin/l302.exe)
 NPDir=0 NMtPBC=     1 NCelOv=     1 NCel=       1 NClECP=     1 NCelD=      1
         NCelK=      1 NCelE2=     1 NClLst=     1 CellRange=     0.0.
 One-electron integrals computed using PRISM.
 One-electron integral symmetry used in STVInt
 NBasis=    60 RedAO= T  NBF=    13     3     7     7     3    13     7     7
 NBsUse=    60 1.00D-06 NBFU=    13     3     7     7     3    13     7     7
 Precomputing XC quadrature grid using
 IXCGrd= 2 IRadAn=           0 IRanWt=          -1 IRanGd=           0 AccXCQ= 1.00D-10.
 NRdTot=     124 NPtTot=       15752 NUsed=       16659 NTot=       16691
 NSgBfM=    70    70    70    70    70 NAtAll=     2     2.
 Leave Link  302 at Sun Aug 18 15:13:06 2024, MaxMem=   13107200 cpu:       0.2
 (Enter /programs/64bit/g09/g09-gfortran/bin/l303.exe)
 DipDrv:  MaxL=1.
 Leave Link  303 at Sun Aug 18 15:13:06 2024, MaxMem=   13107200 cpu:       0.0
 (Enter /programs/64bit/g09/g09-gfortran/bin/l401.exe)
 Harris functional with IExCor=  408 diagonalized for initial guess.
 ExpMin= 8.99D-02 ExpMax= 8.26D+01 ExpMxC= 8.26D+01 IAcc=2 IRadAn=         0 AccDes= 0.00D+00
 HarFok:  IExCor=  408 AccDes= 0.00D+00 IRadAn=         0 IDoV= 1
 ScaDFX=  1.000000  1.000000  1.000000  1.000000
 FoFCou: FMM=F IPFlag=           0 FMFlag=      100000 FMFlg1=           0
         NFxFlg=           0 DoJE=T BraDBF=F KetDBF=T FulRan=T
         Omega=  0.000000  0.000000  1.000000  0.000000  0.000000 ICntrl=     500 IOpCl=  0
         NMat0=    1 NMatS0=    1 NMatT0=    0 NMatD0=    1 NMtDS0=    0 NMtDT0=    0
         I1Cent=           4 NGrid=           0.
 Petite list used in FoFCou.
 Harris En= -1.19268383291220    
 Initial guess orbital symmetries:
       Occupied  (SGG)
       Virtual   (SGU) (SGG) (PIU) (PIU) (SGU) (SGG) (PIG) (PIG)
                 (SGU) (SGG) (SGU) (DLTG) (DLTG) (PIU) (PIU) (SGG)
                 (PIG) (PIG) (PIU) (PIU) (DLTU) (DLTU) (SGU) (SGG)
                 (PIG) (PIG) (SGU) (SGG) (PHIU) (PHIU) (DLTG) (DLTG)
                 (PHIG) (PHIG) (PIU) (PIU) (PIG) (PIG) (SGG) (DLTU)
                 (DLTU) (SGU) (DLTG) (DLTG) (PIU) (PIU) (SGU) (PIG)
                 (PIG) (SGG) (PIU) (PIU) (DLTU) (DLTU) (SGU) (PIG)
                 (PIG) (SGG) (SGU)
 The electronic state of the initial guess is 1-SGG.
 Leave Link  401 at Sun Aug 18 15:13:06 2024, MaxMem=   13107200 cpu:       0.3
 (Enter /programs/64bit/g09/g09-gfortran/bin/l502.exe)
 Closed shell SCF:
 Requested convergence on RMS density matrix=1.00D-08 within 128 cycles.
 Requested convergence on MAX density matrix=1.00D-06.
 Requested convergence on             energy=1.00D-06.
 No special actions if energy rises.
 Using DIIS extrapolation, IDIIS=  1040.
 Integral symmetry usage will be decided dynamically.
        16628 words used for storage of precomputed grid.
 Keep R1 ints in memory in canonical form, NReq=5079467.
 IEnd=       50598 IEndB=       50598 NGot=    13107200 MDV=     9989330
 LenX=     9989330 LenY=     9983989
 Symmetry not used in FoFDir.
 MinBra= 0 MaxBra= 3 Meth= 1.
 IRaf=       0 NMat=   1 IRICut=       1 DoRegI=T DoRafI=F ISym2E= 0 JSym2E=0.
 Integral accuracy reduced to 1.0D-05 until final iterations.

 Cycle   1  Pass 0  IDiag  1:
 E= -1.17487551947427    
 DIIS: error= 2.04D-02 at cycle   1 NSaved=   1.
 NSaved= 1 IEnMin= 1 EnMin= -1.17487551947427     IErMin= 1 ErrMin= 2.04D-02
 ErrMax= 2.04D-02 EMaxC= 1.00D-01 BMatC= 3.19D-03 BMatP= 3.19D-03
 IDIUse=3 WtCom= 7.96D-01 WtEn= 2.04D-01
 Coeff-Com:  0.100D+01
 Coeff-En:   0.100D+01
 Coeff:      0.100D+01
 Gap=     0.483 Goal=   None    Shift=    0.000
 GapD=    0.483 DampG=2.000 DampE=0.500 DampFc=1.0000 IDamp=-1.
 RMSDP=6.21D-04 MaxDP=7.94D-03              OVMax= 5.75D-02

 Cycle   2  Pass 0  IDiag  1:
 E= -1.17927100029031     Delta-E=       -0.004395480816 Rises=F Damp=F
 DIIS: error= 4.45D-03 at cycle   2 NSaved=   2.
 NSaved= 2 IEnMin= 2 EnMin= -1.17927100029031     IErMin= 2 ErrMin= 4.45D-03
 ErrMax= 4.45D-03 EMaxC= 1.00D-01 BMatC= 1.06D-04 BMatP= 3.19D-03
 IDIUse=3 WtCom= 9.55D-01 WtEn= 4.45D-02
 Coeff-Com:  0.151D+00 0.849D+00
 Coeff-En:   0.000D+00 0.100D+01
 Coeff:      0.144D+00 0.856D+00
 Gap=     0.494 Goal=   None    Shift=    0.000
 RMSDP=9.27D-05 MaxDP=1.12D-03 DE=-4.40D-03 OVMax= 8.85D-03

 Cycle   3  Pass 0  IDiag  1:
 E= -1.17941795504380     Delta-E=       -0.000146954753 Rises=F Damp=F
 DIIS: error= 5.13D-05 at cycle   3 NSaved=   3.
 NSaved= 3 IEnMin= 3 EnMin= -1.17941795504380     IErMin= 3 ErrMin= 5.13D-05
 ErrMax= 5.13D-05 EMaxC= 1.00D-01 BMatC= 2.62D-08 BMatP= 1.06D-04
 IDIUse=1 WtCom= 1.00D+00 WtEn= 0.00D+00
 Coeff-Com: -0.624D-02-0.212D-01 0.103D+01
 Coeff:     -0.624D-02-0.212D-01 0.103D+01
 Gap=     0.494 Goal=   None    Shift=    0.000
 RMSDP=2.51D-06 MaxDP=4.60D-05 DE=-1.47D-04 OVMax= 1.36D-04

 Initial convergence to 1.0D-05 achieved.  Increase integral accuracy.
 Cycle   4  Pass 1  IDiag  1:
 E= -1.17941388671001     Delta-E=        0.000004068334 Rises=F Damp=F
 DIIS: error= 1.43D-05 at cycle   1 NSaved=   1.
 NSaved= 1 IEnMin= 1 EnMin= -1.17941388671001     IErMin= 1 ErrMin= 1.43D-05
 ErrMax= 1.43D-05 EMaxC= 1.00D-01 BMatC= 2.22D-09 BMatP= 2.22D-09
 IDIUse=1 WtCom= 1.00D+00 WtEn= 0.00D+00
 Coeff-Com:  0.100D+01
 Coeff:      0.100D+01
 Gap=     0.494 Goal=   None    Shift=    0.000
 RMSDP=2.51D-06 MaxDP=4.60D-05 DE= 4.07D-06 OVMax= 6.64D-06

 Cycle   5  Pass 1  IDiag  1:
 E= -1.17941388730564     Delta-E=       -0.000000000596 Rises=F Damp=F
 DIIS: error= 7.98D-07 at cycle   2 NSaved=   2.
 NSaved= 2 IEnMin= 2 EnMin= -1.17941388730564     IErMin= 2 ErrMin= 7.98D-07
 ErrMax= 7.98D-07 EMaxC= 1.00D-01 BMatC= 4.92D-12 BMatP= 2.22D-09
 IDIUse=1 WtCom= 1.00D+00 WtEn= 0.00D+00
 Coeff-Com: -0.453D-01 0.105D+01
 Coeff:     -0.453D-01 0.105D+01
 Gap=     0.494 Goal=   None    Shift=    0.000
 RMSDP=1.68D-08 MaxDP=1.91D-07 DE=-5.96D-10 OVMax= 9.68D-07

 Cycle   6  Pass 1  IDiag  1:
 E= -1.17941388730793     Delta-E=       -0.000000000002 Rises=F Damp=F
 DIIS: error= 6.54D-08 at cycle   3 NSaved=   3.
 NSaved= 3 IEnMin= 3 EnMin= -1.17941388730793     IErMin= 3 ErrMin= 6.54D-08
 ErrMax= 6.54D-08 EMaxC= 1.00D-01 BMatC= 2.77D-14 BMatP= 4.92D-12
 IDIUse=1 WtCom= 1.00D+00 WtEn= 0.00D+00
 Coeff-Com: -0.708D-02 0.134D+00 0.873D+00
 Coeff:     -0.708D-02 0.134D+00 0.873D+00
 Gap=     0.494 Goal=   None    Shift=    0.000
 RMSDP=1.72D-09 MaxDP=2.27D-08 DE=-2.30D-12 OVMax= 1.35D-07

 SCF Done:  E(RB3PW91) =  -1.17941388731     A.U. after    6 cycles
             Convg  =    0.1721D-08             -V/T =  2.0307
 KE= 1.144331422312D+00 PE=-3.652734080761D+00 EE= 6.138844352092D-01
 Leave Link  502 at Sun Aug 18 15:13:07 2024, MaxMem=   13107200 cpu:       1.0
 (Enter /programs/64bit/g09/g09-gfortran/bin/l601.exe)
 Copying SCF densities to generalized density rwf, IOpCl= 0 IROHF=0.

 **********************************************************************

            Population analysis using the SCF density.

 **********************************************************************

 Orbital symmetries:
       Occupied  (SGG)
       Virtual   (SGU) (SGG) (PIU) (PIU) (SGU) (SGG) (PIG) (PIG)
                 (SGU) (SGG) (SGU) (DLTG) (DLTG) (PIU) (PIU) (SGG)
                 (PIG) (PIG) (PIU) (PIU) (DLTU) (DLTU) (SGU) (SGG)
                 (PIG) (PIG) (SGU) (SGG) (PHIU) (PHIU) (DLTG) (DLTG)
                 (PHIG) (PHIG) (PIU) (PIU) (PIG) (PIG) (SGG) (DLTU)
                 (DLTU) (SGU) (DLTG) (DLTG) (PIU) (PIU) (SGU) (PIG)
                 (PIG) (SGG) (PIU) (PIU) (DLTU) (DLTU) (SGU) (PIG)
                 (PIG) (SGG) (SGU)
 The electronic state is 1-SGG.
 Alpha  occ. eigenvalues --   -0.43271
 Alpha virt. eigenvalues --    0.06085   0.15600   0.36031   0.36031   0.38086
 Alpha virt. eigenvalues --    0.66528   0.68036   0.68036   0.99698   1.11746
 Alpha virt. eigenvalues --    1.36418   1.71106   1.71106   1.89636   1.89636
 Alpha virt. eigenvalues --    2.12283   2.15595   2.15595   2.33322   2.33322
 Alpha virt. eigenvalues --    2.33670   2.33670   2.78975   3.09147   3.36655
 Alpha virt. eigenvalues --    3.36655   3.69240   5.24273   5.38980   5.38980
 Alpha virt. eigenvalues --    5.90530   5.90530   6.44370   6.44370   6.60743
 Alpha virt. eigenvalues --    6.60743   6.79339   6.79339   6.97677   7.31012
 Alpha virt. eigenvalues --    7.31012   7.45163   7.63153   7.63153   7.63529
 Alpha virt. eigenvalues --    7.63529   7.89776   8.00804   8.00804   8.17023
 Alpha virt. eigenvalues --    8.46776   8.46776   8.84226   8.84226  10.04214
 Alpha virt. eigenvalues --   12.36388  12.36388  12.57254  15.65856
     Molecular Orbital Coefficients:
                           1         2         3         4         5
                       (SGG)--O  (SGU)--V  (SGG)--V  (PIU)--V  (PIU)--V
     Eigenvalues --    -0.43271   0.06085   0.15600   0.36031   0.36031
   1 1   H  1S          0.07470   0.03445  -0.04190   0.00000   0.00000
   2        2S          0.19015  -0.02848   0.11894   0.00000   0.00000
   3        3S          0.25436  -0.44961  -0.83177   0.00000   0.00000
   4        4S          0.09858   2.23126   0.92848   0.00000   0.00000
   5        5PX         0.00000   0.00000   0.00000   0.00000   0.04383
   6        5PY         0.00000   0.00000   0.00000   0.04383   0.00000
   7        5PZ        -0.00509   0.00057  -0.02292   0.00000   0.00000
   8        6PX         0.00000   0.00000   0.00000   0.00000  -0.13257
   9        6PY         0.00000   0.00000   0.00000  -0.13257   0.00000
  10        6PZ        -0.00942   0.14122   0.05893   0.00000   0.00000
  11        7PX         0.00000   0.00000   0.00000   0.00000   0.60797
  12        7PY         0.00000   0.00000   0.00000   0.60797   0.00000
  13        7PZ        -0.01201   0.18522   0.02862   0.00000   0.00000
  14        8D 0        0.00136  -0.00887  -0.00070   0.00000   0.00000
  15        8D+1        0.00000   0.00000   0.00000   0.00000  -0.00320
  16        8D-1        0.00000   0.00000   0.00000  -0.00320   0.00000
  17        8D+2       -0.00000   0.00000   0.00000   0.00000   0.00000
  18        8D-2        0.00000   0.00000   0.00000   0.00000   0.00000
  19        9D 0        0.00028  -0.04761  -0.06838   0.00000   0.00000
  20        9D+1        0.00000   0.00000   0.00000   0.00000   0.00073
  21        9D-1        0.00000   0.00000   0.00000   0.00073   0.00000
  22        9D+2        0.00000  -0.00000  -0.00000   0.00000   0.00000
  23        9D-2        0.00000   0.00000   0.00000   0.00000   0.00000
  24       10F 0       -0.00005   0.00640   0.02056   0.00000   0.00000
  25       10F+1        0.00000   0.00000   0.00000   0.00000   0.00790
  26       10F-1        0.00000   0.00000   0.00000   0.00790   0.00000
  27       10F+2        0.00000   0.00000  -0.00000   0.00000   0.00000
  28       10F-2        0.00000   0.00000   0.00000   0.00000   0.00000
  29       10F+3        0.00000   0.00000   0.00000   0.00000   0.00000
  30       10F-3        0.00000   0.00000   0.00000  -0.00000   0.00000
  31 2   H  1S          0.07470  -0.03445  -0.04190   0.00000   0.00000
  32        2S          0.19015   0.02848   0.11894   0.00000   0.00000
  33        3S          0.25436   0.44961  -0.83177   0.00000   0.00000
  34        4S          0.09858  -2.23126   0.92848   0.00000   0.00000
  35        5PX         0.00000   0.00000   0.00000   0.00000   0.04383
  36        5PY         0.00000   0.00000   0.00000   0.04383   0.00000
  37        5PZ         0.00509   0.00057   0.02292   0.00000   0.00000
  38        6PX         0.00000   0.00000   0.00000   0.00000  -0.13257
  39        6PY         0.00000   0.00000   0.00000  -0.13257   0.00000
  40        6PZ         0.00942   0.14122  -0.05893   0.00000   0.00000
  41        7PX         0.00000   0.00000   0.00000   0.00000   0.60797
  42        7PY         0.00000   0.00000   0.00000   0.60797   0.00000
  43        7PZ         0.01201   0.18522  -0.02862   0.00000   0.00000
  44        8D 0        0.00136   0.00887  -0.00070   0.00000   0.00000
  45        8D+1        0.00000   0.00000   0.00000   0.00000   0.00320
  46        8D-1        0.00000   0.00000   0.00000   0.00320   0.00000
  47        8D+2       -0.00000  -0.00000   0.00000   0.00000   0.00000
  48        8D-2        0.00000   0.00000   0.00000   0.00000   0.00000
  49        9D 0        0.00028   0.04761  -0.06838   0.00000   0.00000
  50        9D+1        0.00000   0.00000   0.00000   0.00000  -0.00073
  51        9D-1        0.00000   0.00000   0.00000  -0.00073   0.00000
  52        9D+2        0.00000   0.00000  -0.00000   0.00000   0.00000
  53        9D-2        0.00000   0.00000   0.00000   0.00000   0.00000
  54       10F 0        0.00005   0.00640  -0.02056   0.00000   0.00000
  55       10F+1        0.00000   0.00000   0.00000   0.00000   0.00790
  56       10F-1        0.00000   0.00000   0.00000   0.00790   0.00000
  57       10F+2       -0.00000   0.00000   0.00000   0.00000   0.00000
  58       10F-2        0.00000   0.00000   0.00000   0.00000   0.00000
  59       10F+3        0.00000   0.00000   0.00000   0.00000   0.00000
  60       10F-3        0.00000   0.00000   0.00000  -0.00000   0.00000
                           6         7         8         9        10
                       (SGU)--V  (SGG)--V  (PIG)--V  (PIG)--V  (SGU)--V
     Eigenvalues --     0.38086   0.66528   0.68036   0.68036   0.99698
   1 1   H  1S          0.03795  -0.00047   0.00000   0.00000  -0.05469
   2        2S          0.59296   0.38464   0.00000   0.00000   1.14040
   3        3S          3.57411   0.54774   0.00000   0.00000  23.39462
   4        4S         -3.04004  -0.40353   0.00000   0.00000  -0.38524
   5        5PX         0.00000   0.00000   0.00000   0.02647   0.00000
   6        5PY         0.00000   0.00000   0.02647   0.00000   0.00000
   7        5PZ         0.02423   0.01208   0.00000   0.00000  -0.00908
   8        6PX         0.00000   0.00000   0.00000   0.08681   0.00000
   9        6PY         0.00000   0.00000   0.08681   0.00000   0.00000
  10        6PZ        -0.50079  -0.13301   0.00000   0.00000  -0.84354
  11        7PX         0.00000   0.00000   0.00000   1.88863   0.00000
  12        7PY         0.00000   0.00000   1.88863   0.00000   0.00000
  13        7PZ        -0.51033   1.50880   0.00000   0.00000  -9.40688
  14        8D 0        0.02942   0.02017   0.00000   0.00000   0.01650
  15        8D+1        0.00000   0.00000   0.00000  -0.00125   0.00000
  16        8D-1        0.00000   0.00000  -0.00125   0.00000   0.00000
  17        8D+2       -0.00000  -0.00000   0.00000   0.00000  -0.00000
  18        8D-2        0.00000   0.00000   0.00000   0.00000   0.00000
  19        9D 0        0.19355  -0.28243   0.00000   0.00000   0.68122
  20        9D+1        0.00000   0.00000   0.00000  -0.37906   0.00000
  21        9D-1        0.00000   0.00000  -0.37906   0.00000   0.00000
  22        9D+2        0.00000   0.00000   0.00000   0.00000   0.00000
  23        9D-2        0.00000   0.00000   0.00000   0.00000   0.00000
  24       10F 0       -0.02303   0.04019   0.00000   0.00000  -0.05848
  25       10F+1        0.00000   0.00000   0.00000   0.05915   0.00000
  26       10F-1        0.00000   0.00000   0.05915   0.00000   0.00000
  27       10F+2       -0.00000  -0.00000   0.00000   0.00000  -0.00000
  28       10F-2        0.00000   0.00000   0.00000   0.00000   0.00000
  29       10F+3        0.00000   0.00000   0.00000   0.00000   0.00000
  30       10F-3        0.00000   0.00000  -0.00000   0.00000   0.00000
  31 2   H  1S         -0.03795  -0.00047   0.00000   0.00000   0.05469
  32        2S         -0.59296   0.38464   0.00000   0.00000  -1.14040
  33        3S         -3.57411   0.54774   0.00000   0.00000 -23.39462
  34        4S          3.04004  -0.40353   0.00000   0.00000   0.38524
  35        5PX         0.00000   0.00000   0.00000  -0.02647   0.00000
  36        5PY         0.00000   0.00000  -0.02647   0.00000   0.00000
  37        5PZ         0.02423  -0.01208   0.00000   0.00000  -0.00908
  38        6PX         0.00000   0.00000   0.00000  -0.08681   0.00000
  39        6PY         0.00000   0.00000  -0.08681   0.00000   0.00000
  40        6PZ        -0.50079   0.13301   0.00000   0.00000  -0.84354
  41        7PX         0.00000   0.00000   0.00000  -1.88863   0.00000
  42        7PY         0.00000   0.00000  -1.88863   0.00000   0.00000
  43        7PZ        -0.51033  -1.50880   0.00000   0.00000  -9.40688
  44        8D 0       -0.02942   0.02017   0.00000   0.00000  -0.01650
  45        8D+1        0.00000   0.00000   0.00000  -0.00125   0.00000
  46        8D-1        0.00000   0.00000  -0.00125   0.00000   0.00000
  47        8D+2        0.00000  -0.00000   0.00000   0.00000   0.00000
  48        8D-2        0.00000   0.00000   0.00000   0.00000   0.00000
  49        9D 0       -0.19355  -0.28243   0.00000   0.00000  -0.68122
  50        9D+1        0.00000   0.00000   0.00000  -0.37906   0.00000
  51        9D-1        0.00000   0.00000  -0.37906   0.00000   0.00000
  52        9D+2       -0.00000   0.00000   0.00000   0.00000  -0.00000
  53        9D-2        0.00000   0.00000   0.00000   0.00000   0.00000
  54       10F 0       -0.02303  -0.04019   0.00000   0.00000  -0.05848
  55       10F+1        0.00000   0.00000   0.00000  -0.05915   0.00000
  56       10F-1        0.00000   0.00000  -0.05915   0.00000   0.00000
  57       10F+2       -0.00000   0.00000   0.00000   0.00000  -0.00000
  58       10F-2        0.00000   0.00000   0.00000   0.00000   0.00000
  59       10F+3        0.00000   0.00000   0.00000  -0.00000   0.00000
  60       10F-3        0.00000   0.00000   0.00000   0.00000   0.00000
                          11        12        13        14        15
                       (SGG)--V  (SGU)--V  (DLTG)--  (DLTG)--  (PIU)--V
     Eigenvalues --     1.11746   1.36418   1.71106   1.71106   1.89636
   1 1   H  1S          0.05875  -0.14963   0.00000   0.00000   0.00000
   2        2S          1.90770   0.95380  -0.00000   0.00000   0.00000
   3        3S         -1.84878   5.18686   0.00000   0.00000   0.00000
   4        4S          0.62698  -2.01113  -0.00000   0.00000   0.00000
   5        5PX         0.00000   0.00000   0.00000   0.00000   0.00000
   6        5PY         0.00000   0.00000   0.00000   0.00000  -0.11682
   7        5PZ        -0.13691   0.05737   0.00000   0.00000   0.00000
   8        6PX         0.00000   0.00000   0.00000   0.00000   0.00000
   9        6PY         0.00000   0.00000   0.00000   0.00000   0.88710
  10        6PZ         0.10846  -1.93036  -0.00000   0.00000   0.00000
  11        7PX         0.00000   0.00000   0.00000   0.00000   0.00000
  12        7PY         0.00000   0.00000   0.00000   0.00000  -0.55021
  13        7PZ         0.70770  -0.78535   0.00000   0.00000   0.00000
  14        8D 0        0.01662   0.11077   0.00000   0.00000   0.00000
  15        8D+1        0.00000   0.00000   0.00000   0.00000   0.00000
  16        8D-1        0.00000   0.00000   0.00000   0.00000   0.02644
  17        8D+2        0.00000   0.00000  -0.09053   0.00000   0.00000
  18        8D-2        0.00000   0.00000   0.00000  -0.09053   0.00000
  19        9D 0       -0.52945   0.70519  -0.00000   0.00000   0.00000
  20        9D+1        0.00000   0.00000   0.00000   0.00000   0.00000
  21        9D-1        0.00000   0.00000   0.00000   0.00000  -0.17979
  22        9D+2       -0.00000   0.00000   0.62103   0.00000   0.00000
  23        9D-2        0.00000   0.00000   0.00000   0.62103   0.00000
  24       10F 0        0.12620  -0.08160  -0.00000   0.00000   0.00000
  25       10F+1        0.00000   0.00000   0.00000   0.00000   0.00000
  26       10F-1        0.00000   0.00000   0.00000   0.00000  -0.02951
  27       10F+2       -0.00000  -0.00000   0.01902   0.00000   0.00000
  28       10F-2        0.00000   0.00000   0.00000   0.01902   0.00000
  29       10F+3        0.00000   0.00000   0.00000   0.00000   0.00000
  30       10F-3        0.00000   0.00000   0.00000   0.00000  -0.00000
  31 2   H  1S          0.05875   0.14963   0.00000   0.00000   0.00000
  32        2S          1.90770  -0.95380  -0.00000   0.00000   0.00000
  33        3S         -1.84878  -5.18686   0.00000   0.00000   0.00000
  34        4S          0.62698   2.01113  -0.00000   0.00000   0.00000
  35        5PX         0.00000   0.00000   0.00000   0.00000   0.00000
  36        5PY         0.00000   0.00000   0.00000   0.00000  -0.11682
  37        5PZ         0.13691   0.05737  -0.00000   0.00000   0.00000
  38        6PX         0.00000   0.00000   0.00000   0.00000   0.00000
  39        6PY         0.00000   0.00000   0.00000   0.00000   0.88710
  40        6PZ        -0.10846  -1.93036   0.00000   0.00000   0.00000
  41        7PX         0.00000   0.00000   0.00000   0.00000   0.00000
  42        7PY         0.00000   0.00000   0.00000   0.00000  -0.55021
  43        7PZ        -0.70770  -0.78535  -0.00000   0.00000   0.00000
  44        8D 0        0.01662  -0.11077   0.00000   0.00000   0.00000
  45        8D+1        0.00000   0.00000   0.00000   0.00000   0.00000
  46        8D-1        0.00000   0.00000   0.00000   0.00000  -0.02644
  47        8D+2        0.00000  -0.00000  -0.09053   0.00000   0.00000
  48        8D-2        0.00000   0.00000   0.00000  -0.09053   0.00000
  49        9D 0       -0.52945  -0.70519  -0.00000   0.00000   0.00000
  50        9D+1        0.00000   0.00000   0.00000   0.00000   0.00000
  51        9D-1        0.00000   0.00000   0.00000   0.00000   0.17979
  52        9D+2       -0.00000  -0.00000   0.62103   0.00000   0.00000
  53        9D-2        0.00000   0.00000   0.00000   0.62103   0.00000
  54       10F 0       -0.12620  -0.08160   0.00000   0.00000   0.00000
  55       10F+1        0.00000   0.00000   0.00000   0.00000   0.00000
  56       10F-1        0.00000   0.00000   0.00000   0.00000  -0.02951
  57       10F+2        0.00000  -0.00000  -0.01902   0.00000   0.00000
  58       10F-2        0.00000   0.00000   0.00000  -0.01902   0.00000
  59       10F+3        0.00000   0.00000   0.00000   0.00000   0.00000
  60       10F-3        0.00000   0.00000   0.00000   0.00000  -0.00000
                          16        17        18        19        20
                       (PIU)--V  (SGG)--V  (PIG)--V  (PIG)--V  (PIU)--V
     Eigenvalues --     1.89636   2.12283   2.15595   2.15595   2.33322
   1 1   H  1S          0.00000   0.01498   0.00000   0.00000   0.00000
   2        2S          0.00000   0.79731   0.00000   0.00000   0.00000
   3        3S          0.00000   0.04976   0.00000   0.00000   0.00000
   4        4S          0.00000  -0.21031   0.00000   0.00000   0.00000
   5        5PX        -0.11682   0.00000   0.00000  -0.01161  -0.06697
   6        5PY         0.00000   0.00000  -0.01161   0.00000   0.00000
   7        5PZ         0.00000  -0.01546   0.00000   0.00000   0.00000
   8        6PX         0.88710   0.00000   0.00000   0.65644   0.68488
   9        6PY         0.00000   0.00000   0.65644   0.00000   0.00000
  10        6PZ         0.00000  -0.65409   0.00000   0.00000   0.00000
  11        7PX        -0.55021   0.00000   0.00000   2.11142  -0.26105
  12        7PY         0.00000   0.00000   2.11142   0.00000   0.00000
  13        7PZ         0.00000   1.61930   0.00000   0.00000   0.00000
  14        8D 0        0.00000   0.06894   0.00000   0.00000   0.00000
  15        8D+1        0.02644   0.00000   0.00000  -0.02755  -0.11005
  16        8D-1        0.00000   0.00000  -0.02755   0.00000   0.00000
  17        8D+2        0.00000  -0.00000   0.00000   0.00000   0.00000
  18        8D-2        0.00000   0.00000   0.00000   0.00000   0.00000
  19        9D 0        0.00000  -1.11691   0.00000   0.00000   0.00000
  20        9D+1       -0.17979   0.00000   0.00000  -1.92775   0.81631
  21        9D-1        0.00000   0.00000  -1.92775   0.00000   0.00000
  22        9D+2        0.00000  -0.00000   0.00000   0.00000   0.00000
  23        9D-2        0.00000   0.00000   0.00000   0.00000   0.00000
  24       10F 0        0.00000   0.10225   0.00000   0.00000   0.00000
  25       10F+1       -0.02951   0.00000   0.00000   0.25594  -0.02432
  26       10F-1        0.00000   0.00000   0.25594   0.00000   0.00000
  27       10F+2        0.00000  -0.00000   0.00000   0.00000   0.00000
  28       10F-2        0.00000   0.00000   0.00000   0.00000   0.00000
  29       10F+3        0.00000   0.00000   0.00000   0.00000  -0.00000
  30       10F-3        0.00000   0.00000  -0.00000   0.00000   0.00000
  31 2   H  1S          0.00000   0.01498   0.00000   0.00000   0.00000
  32        2S          0.00000   0.79731   0.00000   0.00000   0.00000
  33        3S          0.00000   0.04976   0.00000   0.00000   0.00000
  34        4S          0.00000  -0.21031   0.00000   0.00000   0.00000
  35        5PX        -0.11682   0.00000   0.00000   0.01161  -0.06697
  36        5PY         0.00000   0.00000   0.01161   0.00000   0.00000
  37        5PZ         0.00000   0.01546   0.00000   0.00000   0.00000
  38        6PX         0.88710   0.00000   0.00000  -0.65644   0.68488
  39        6PY         0.00000   0.00000  -0.65644   0.00000   0.00000
  40        6PZ         0.00000   0.65409   0.00000   0.00000   0.00000
  41        7PX        -0.55021   0.00000   0.00000  -2.11142  -0.26105
  42        7PY         0.00000   0.00000  -2.11142   0.00000   0.00000
  43        7PZ         0.00000  -1.61930   0.00000   0.00000   0.00000
  44        8D 0        0.00000   0.06894   0.00000   0.00000   0.00000
  45        8D+1       -0.02644   0.00000   0.00000  -0.02755   0.11005
  46        8D-1        0.00000   0.00000  -0.02755   0.00000   0.00000
  47        8D+2        0.00000  -0.00000   0.00000   0.00000   0.00000
  48        8D-2        0.00000   0.00000   0.00000   0.00000   0.00000
  49        9D 0        0.00000  -1.11691   0.00000   0.00000   0.00000
  50        9D+1        0.17979   0.00000   0.00000  -1.92775  -0.81631
  51        9D-1        0.00000   0.00000  -1.92775   0.00000   0.00000
  52        9D+2        0.00000  -0.00000   0.00000   0.00000   0.00000
  53        9D-2        0.00000   0.00000   0.00000   0.00000   0.00000
  54       10F 0        0.00000  -0.10225   0.00000   0.00000   0.00000
  55       10F+1       -0.02951   0.00000   0.00000  -0.25594  -0.02432
  56       10F-1        0.00000   0.00000  -0.25594   0.00000   0.00000
  57       10F+2        0.00000   0.00000   0.00000   0.00000   0.00000
  58       10F-2        0.00000   0.00000   0.00000   0.00000   0.00000
  59       10F+3        0.00000   0.00000   0.00000  -0.00000  -0.00000
  60       10F-3        0.00000   0.00000   0.00000   0.00000   0.00000
                          21        22        23        24        25
                       (PIU)--V  (DLTU)--  (DLTU)--  (SGU)--V  (SGG)--V
     Eigenvalues --     2.33322   2.33670   2.33670   2.78975   3.09147
   1 1   H  1S          0.00000  -0.00000   0.00000  -0.08631  -0.03348
   2        2S          0.00000   0.00000   0.00000   3.61740   2.71323
   3        3S          0.00000   0.00000   0.00000  17.83364  -1.59332
   4        4S          0.00000   0.00000   0.00000  -0.10265   0.26545
   5        5PX         0.00000   0.00000   0.00000   0.00000   0.00000
   6        5PY        -0.06697   0.00000   0.00000   0.00000   0.00000
   7        5PZ         0.00000  -0.00000   0.00000  -0.01400  -0.31974
   8        6PX         0.00000   0.00000   0.00000   0.00000   0.00000
   9        6PY         0.68488   0.00000   0.00000   0.00000   0.00000
  10        6PZ         0.00000  -0.00000   0.00000  -1.72518   1.03546
  11        7PX         0.00000   0.00000   0.00000   0.00000   0.00000
  12        7PY        -0.26105   0.00000   0.00000   0.00000   0.00000
  13        7PZ         0.00000  -0.00000   0.00000  -7.48764   1.11278
  14        8D 0        0.00000   0.00000   0.00000   0.01576   0.09117
  15        8D+1        0.00000   0.00000   0.00000   0.00000   0.00000
  16        8D-1       -0.11005   0.00000   0.00000   0.00000   0.00000
  17        8D+2        0.00000  -0.10660   0.00000   0.00000   0.00000
  18        8D-2        0.00000   0.00000  -0.10660   0.00000   0.00000
  19        9D 0        0.00000   0.00000   0.00000   1.96863  -1.89433
  20        9D+1        0.00000   0.00000   0.00000   0.00000   0.00000
  21        9D-1        0.81631   0.00000   0.00000   0.00000   0.00000
  22        9D+2        0.00000   1.14814   0.00000   0.00000   0.00000
  23        9D-2        0.00000   0.00000   1.14814   0.00000   0.00000
  24       10F 0        0.00000  -0.00000   0.00000  -0.12117   0.20684
  25       10F+1        0.00000   0.00000   0.00000   0.00000   0.00000
  26       10F-1       -0.02432   0.00000   0.00000   0.00000   0.00000
  27       10F+2        0.00000  -0.07133   0.00000  -0.00000  -0.00000
  28       10F-2        0.00000   0.00000  -0.07133   0.00000   0.00000
  29       10F+3        0.00000   0.00000   0.00000   0.00000   0.00000
  30       10F-3        0.00000   0.00000   0.00000   0.00000   0.00000
  31 2   H  1S          0.00000   0.00000   0.00000   0.08631  -0.03348
  32        2S          0.00000  -0.00000   0.00000  -3.61740   2.71323
  33        3S          0.00000  -0.00000   0.00000 -17.83364  -1.59332
  34        4S          0.00000  -0.00000   0.00000   0.10265   0.26545
  35        5PX         0.00000   0.00000   0.00000   0.00000   0.00000
  36        5PY        -0.06697   0.00000   0.00000   0.00000   0.00000
  37        5PZ         0.00000  -0.00000   0.00000  -0.01400   0.31974
  38        6PX         0.00000   0.00000   0.00000   0.00000   0.00000
  39        6PY         0.68488   0.00000   0.00000   0.00000   0.00000
  40        6PZ         0.00000  -0.00000   0.00000  -1.72518  -1.03546
  41        7PX         0.00000   0.00000   0.00000   0.00000   0.00000
  42        7PY        -0.26105   0.00000   0.00000   0.00000   0.00000
  43        7PZ         0.00000  -0.00000   0.00000  -7.48764  -1.11278
  44        8D 0        0.00000  -0.00000   0.00000  -0.01576   0.09117
  45        8D+1        0.00000   0.00000   0.00000   0.00000   0.00000
  46        8D-1        0.11005   0.00000   0.00000   0.00000   0.00000
  47        8D+2        0.00000   0.10660   0.00000  -0.00000   0.00000
  48        8D-2        0.00000   0.00000   0.10660   0.00000   0.00000
  49        9D 0        0.00000  -0.00000   0.00000  -1.96863  -1.89433
  50        9D+1        0.00000   0.00000   0.00000   0.00000   0.00000
  51        9D-1       -0.81631   0.00000   0.00000   0.00000   0.00000
  52        9D+2        0.00000  -1.14814   0.00000  -0.00000   0.00000
  53        9D-2        0.00000   0.00000  -1.14814   0.00000   0.00000
  54       10F 0        0.00000  -0.00000   0.00000  -0.12117  -0.20684
  55       10F+1        0.00000   0.00000   0.00000   0.00000   0.00000
  56       10F-1       -0.02432   0.00000   0.00000   0.00000   0.00000
  57       10F+2        0.00000  -0.07133   0.00000  -0.00000   0.00000
  58       10F-2        0.00000   0.00000  -0.07133   0.00000   0.00000
  59       10F+3        0.00000   0.00000   0.00000   0.00000   0.00000
  60       10F-3        0.00000   0.00000   0.00000   0.00000   0.00000
                          26        27        28        29        30
                       (PIG)--V  (PIG)--V  (SGU)--V  (SGG)--V  (PHIU)--
     Eigenvalues --     3.36655   3.36655   3.69240   5.24273   5.38980
   1 1   H  1S          0.00000   0.00000   0.01476  -0.34751   0.00000
   2        2S          0.00000   0.00000   6.50918   1.50781   0.00000
   3        3S          0.00000   0.00000   7.54342  -1.01579   0.00000
   4        4S          0.00000   0.00000  -1.21169   0.26386   0.00000
   5        5PX         0.00000  -0.24807   0.00000   0.00000   0.00000
   6        5PY        -0.24807   0.00000   0.00000   0.00000   0.00000
   7        5PZ         0.00000   0.00000   0.17794  -0.44954   0.00000
   8        6PX         0.00000   3.24037   0.00000   0.00000   0.00000
   9        6PY         3.24037   0.00000   0.00000   0.00000  -0.00000
  10        6PZ         0.00000   0.00000  -5.77739   0.68785   0.00000
  11        7PX         0.00000   1.01086   0.00000   0.00000   0.00000
  12        7PY         1.01086   0.00000   0.00000   0.00000   0.00000
  13        7PZ         0.00000   0.00000  -2.12246   0.21531   0.00000
  14        8D 0        0.00000   0.00000   0.28175  -0.02919   0.00000
  15        8D+1        0.00000  -0.07024   0.00000   0.00000   0.00000
  16        8D-1       -0.07024   0.00000   0.00000   0.00000   0.00000
  17        8D+2        0.00000   0.00000   0.00000  -0.00000   0.00000
  18        8D-2        0.00000   0.00000   0.00000   0.00000   0.00000
  19        9D 0        0.00000   0.00000   1.73787  -0.47579   0.00000
  20        9D+1        0.00000  -2.59356   0.00000   0.00000   0.00000
  21        9D-1       -2.59356   0.00000   0.00000   0.00000  -0.00000
  22        9D+2        0.00000   0.00000   0.00000  -0.00000   0.00000
  23        9D-2        0.00000   0.00000   0.00000   0.00000   0.00000
  24       10F 0        0.00000   0.00000  -0.22113   0.68227   0.00000
  25       10F+1        0.00000   0.31102   0.00000   0.00000   0.00000
  26       10F-1        0.31102   0.00000   0.00000   0.00000  -0.00000
  27       10F+2        0.00000   0.00000  -0.00000  -0.00000   0.00000
  28       10F-2        0.00000   0.00000   0.00000   0.00000   0.00000
  29       10F+3        0.00000  -0.00000   0.00000   0.00000   0.00000
  30       10F-3        0.00000   0.00000   0.00000   0.00000   0.63116
  31 2   H  1S          0.00000   0.00000  -0.01476  -0.34751   0.00000
  32        2S          0.00000   0.00000  -6.50918   1.50781   0.00000
  33        3S          0.00000   0.00000  -7.54342  -1.01579   0.00000
  34        4S          0.00000   0.00000   1.21169   0.26386   0.00000
  35        5PX         0.00000   0.24807   0.00000   0.00000   0.00000
  36        5PY         0.24807   0.00000   0.00000   0.00000   0.00000
  37        5PZ         0.00000   0.00000   0.17794   0.44954   0.00000
  38        6PX         0.00000  -3.24037   0.00000   0.00000   0.00000
  39        6PY        -3.24037   0.00000   0.00000   0.00000  -0.00000
  40        6PZ         0.00000   0.00000  -5.77739  -0.68785   0.00000
  41        7PX         0.00000  -1.01086   0.00000   0.00000   0.00000
  42        7PY        -1.01086   0.00000   0.00000   0.00000   0.00000
  43        7PZ         0.00000   0.00000  -2.12246  -0.21531   0.00000
  44        8D 0        0.00000   0.00000  -0.28175  -0.02919   0.00000
  45        8D+1        0.00000  -0.07024   0.00000   0.00000   0.00000
  46        8D-1       -0.07024   0.00000   0.00000   0.00000  -0.00000
  47        8D+2        0.00000   0.00000  -0.00000  -0.00000   0.00000
  48        8D-2        0.00000   0.00000   0.00000   0.00000   0.00000
  49        9D 0        0.00000   0.00000  -1.73787  -0.47579   0.00000
  50        9D+1        0.00000  -2.59356   0.00000   0.00000   0.00000
  51        9D-1       -2.59356   0.00000   0.00000   0.00000   0.00000
  52        9D+2        0.00000   0.00000  -0.00000  -0.00000   0.00000
  53        9D-2        0.00000   0.00000   0.00000   0.00000   0.00000
  54       10F 0        0.00000   0.00000  -0.22113  -0.68227   0.00000
  55       10F+1        0.00000  -0.31102   0.00000   0.00000   0.00000
  56       10F-1       -0.31102   0.00000   0.00000   0.00000  -0.00000
  57       10F+2        0.00000   0.00000  -0.00000   0.00000   0.00000
  58       10F-2        0.00000   0.00000   0.00000   0.00000   0.00000
  59       10F+3        0.00000   0.00000   0.00000   0.00000   0.00000
  60       10F-3       -0.00000   0.00000   0.00000   0.00000   0.63116
                          31        32        33        34        35
                       (PHIU)--  (DLTG)--  (DLTG)--  (PHIG)--  (PHIG)--
     Eigenvalues --     5.38980   5.90530   5.90530   6.44370   6.44370
   1 1   H  1S          0.00000  -0.00000   0.00000   0.00000   0.00000
   2        2S          0.00000   0.00000   0.00000   0.00000   0.00000
   3        3S          0.00000  -0.00000   0.00000   0.00000   0.00000
   4        4S          0.00000   0.00000   0.00000   0.00000   0.00000
   5        5PX        -0.00000   0.00000   0.00000   0.00000  -0.00000
   6        5PY         0.00000   0.00000   0.00000   0.00000   0.00000
   7        5PZ         0.00000   0.00000   0.00000   0.00000   0.00000
   8        6PX         0.00000   0.00000   0.00000   0.00000  -0.00000
   9        6PY         0.00000   0.00000   0.00000   0.00000   0.00000
  10        6PZ         0.00000  -0.00000   0.00000   0.00000   0.00000
  11        7PX        -0.00000   0.00000   0.00000   0.00000  -0.00000
  12        7PY         0.00000   0.00000   0.00000   0.00000   0.00000
  13        7PZ         0.00000   0.00000   0.00000   0.00000   0.00000
  14        8D 0        0.00000  -0.00000   0.00000   0.00000   0.00000
  15        8D+1       -0.00000   0.00000   0.00000   0.00000   0.00000
  16        8D-1        0.00000   0.00000   0.00000  -0.00000   0.00000
  17        8D+2        0.00000  -0.12018   0.00000   0.00000   0.00000
  18        8D-2        0.00000   0.00000  -0.12018   0.00000   0.00000
  19        9D 0        0.00000  -0.00000   0.00000   0.00000   0.00000
  20        9D+1        0.00000   0.00000   0.00000   0.00000   0.00000
  21        9D-1        0.00000   0.00000   0.00000  -0.00000   0.00000
  22        9D+2        0.00000   0.15883   0.00000   0.00000   0.00000
  23        9D-2        0.00000   0.00000   0.15883   0.00000   0.00000
  24       10F 0        0.00000   0.00000   0.00000   0.00000   0.00000
  25       10F+1        0.00000   0.00000   0.00000   0.00000  -0.00000
  26       10F-1        0.00000   0.00000   0.00000   0.00000   0.00000
  27       10F+2        0.00000   0.58271   0.00000   0.00000   0.00000
  28       10F-2        0.00000   0.00000   0.58271   0.00000   0.00000
  29       10F+3        0.63116   0.00000   0.00000   0.00000   0.81931
  30       10F-3        0.00000   0.00000   0.00000   0.81931   0.00000
  31 2   H  1S          0.00000  -0.00000   0.00000   0.00000   0.00000
  32        2S          0.00000   0.00000   0.00000   0.00000   0.00000
  33        3S          0.00000  -0.00000   0.00000   0.00000   0.00000
  34        4S          0.00000   0.00000   0.00000   0.00000   0.00000
  35        5PX        -0.00000   0.00000   0.00000   0.00000   0.00000
  36        5PY         0.00000   0.00000   0.00000  -0.00000   0.00000
  37        5PZ         0.00000  -0.00000   0.00000   0.00000   0.00000
  38        6PX         0.00000   0.00000   0.00000   0.00000   0.00000
  39        6PY         0.00000   0.00000   0.00000  -0.00000   0.00000
  40        6PZ         0.00000   0.00000   0.00000   0.00000   0.00000
  41        7PX        -0.00000   0.00000   0.00000   0.00000   0.00000
  42        7PY         0.00000   0.00000   0.00000  -0.00000   0.00000
  43        7PZ         0.00000  -0.00000   0.00000   0.00000   0.00000
  44        8D 0        0.00000  -0.00000   0.00000   0.00000   0.00000
  45        8D+1        0.00000   0.00000   0.00000   0.00000   0.00000
  46        8D-1        0.00000   0.00000   0.00000  -0.00000   0.00000
  47        8D+2        0.00000  -0.12018   0.00000   0.00000   0.00000
  48        8D-2        0.00000   0.00000  -0.12018   0.00000   0.00000
  49        9D 0        0.00000  -0.00000   0.00000   0.00000   0.00000
  50        9D+1       -0.00000   0.00000   0.00000   0.00000   0.00000
  51        9D-1        0.00000   0.00000   0.00000  -0.00000   0.00000
  52        9D+2        0.00000   0.15883   0.00000   0.00000   0.00000
  53        9D-2        0.00000   0.00000   0.15883   0.00000   0.00000
  54       10F 0        0.00000  -0.00000   0.00000   0.00000   0.00000
  55       10F+1        0.00000   0.00000   0.00000   0.00000   0.00000
  56       10F-1        0.00000   0.00000   0.00000  -0.00000   0.00000
  57       10F+2        0.00000  -0.58271   0.00000   0.00000   0.00000
  58       10F-2        0.00000   0.00000  -0.58271   0.00000   0.00000
  59       10F+3        0.63116   0.00000   0.00000   0.00000  -0.81931
  60       10F-3        0.00000   0.00000   0.00000  -0.81931   0.00000
                          36        37        38        39        40
                       (PIU)--V  (PIU)--V  (PIG)--V  (PIG)--V  (SGG)--V
     Eigenvalues --     6.60743   6.60743   6.79339   6.79339   6.97677
   1 1   H  1S          0.00000   0.00000   0.00000   0.00000  -0.23678
   2        2S          0.00000   0.00000   0.00000   0.00000   1.07953
   3        3S          0.00000   0.00000   0.00000   0.00000  -0.72926
   4        4S          0.00000   0.00000   0.00000   0.00000   0.17574
   5        5PX        -0.68501   0.00000   0.00000   0.11891   0.00000
   6        5PY         0.00000  -0.68501   0.11891   0.00000   0.00000
   7        5PZ         0.00000   0.00000   0.00000   0.00000  -1.13439
   8        6PX         0.78574   0.00000   0.00000   2.87748   0.00000
   9        6PY         0.00000   0.78574   2.87748   0.00000   0.00000
  10        6PZ         0.00000   0.00000   0.00000   0.00000   1.25724
  11        7PX        -0.29638   0.00000   0.00000   1.25358   0.00000
  12        7PY         0.00000  -0.29638   1.25358   0.00000   0.00000
  13        7PZ         0.00000   0.00000   0.00000   0.00000  -0.12464
  14        8D 0        0.00000   0.00000   0.00000   0.00000   0.06550
  15        8D+1        0.25300   0.00000   0.00000  -0.14326   0.00000
  16        8D-1        0.00000   0.25300  -0.14326   0.00000   0.00000
  17        8D+2        0.00000   0.00000   0.00000   0.00000   0.00000
  18        8D-2        0.00000   0.00000   0.00000   0.00000   0.00000
  19        9D 0        0.00000   0.00000   0.00000   0.00000  -0.52236
  20        9D+1       -0.03283   0.00000   0.00000  -2.47012   0.00000
  21        9D-1        0.00000  -0.03283  -2.47012   0.00000   0.00000
  22        9D+2        0.00000   0.00000   0.00000   0.00000   0.00000
  23        9D-2        0.00000   0.00000   0.00000   0.00000   0.00000
  24       10F 0        0.00000   0.00000   0.00000   0.00000  -0.02740
  25       10F+1       -0.37731   0.00000   0.00000   1.32276   0.00000
  26       10F-1        0.00000  -0.37731   1.32276   0.00000   0.00000
  27       10F+2        0.00000   0.00000   0.00000   0.00000   0.00000
  28       10F-2        0.00000   0.00000   0.00000   0.00000   0.00000
  29       10F+3        0.00000   0.00000   0.00000   0.00000   0.00000
  30       10F-3        0.00000  -0.00000  -0.00000   0.00000   0.00000
  31 2   H  1S          0.00000   0.00000   0.00000   0.00000  -0.23678
  32        2S          0.00000   0.00000   0.00000   0.00000   1.07953
  33        3S          0.00000   0.00000   0.00000   0.00000  -0.72926
  34        4S          0.00000   0.00000   0.00000   0.00000   0.17574
  35        5PX        -0.68501   0.00000   0.00000  -0.11891   0.00000
  36        5PY         0.00000  -0.68501  -0.11891   0.00000   0.00000
  37        5PZ         0.00000   0.00000   0.00000   0.00000   1.13439
  38        6PX         0.78574   0.00000   0.00000  -2.87748   0.00000
  39        6PY         0.00000   0.78574  -2.87748   0.00000   0.00000
  40        6PZ         0.00000   0.00000   0.00000   0.00000  -1.25724
  41        7PX        -0.29638   0.00000   0.00000  -1.25358   0.00000
  42        7PY         0.00000  -0.29638  -1.25358   0.00000   0.00000
  43        7PZ         0.00000   0.00000   0.00000   0.00000   0.12464
  44        8D 0        0.00000   0.00000   0.00000   0.00000   0.06550
  45        8D+1       -0.25300   0.00000   0.00000  -0.14326   0.00000
  46        8D-1        0.00000  -0.25300  -0.14326   0.00000   0.00000
  47        8D+2        0.00000   0.00000   0.00000   0.00000   0.00000
  48        8D-2        0.00000   0.00000   0.00000   0.00000   0.00000
  49        9D 0        0.00000   0.00000   0.00000   0.00000  -0.52236
  50        9D+1        0.03283   0.00000   0.00000  -2.47012   0.00000
  51        9D-1        0.00000   0.03283  -2.47012   0.00000   0.00000
  52        9D+2        0.00000   0.00000   0.00000   0.00000   0.00000
  53        9D-2        0.00000   0.00000   0.00000   0.00000   0.00000
  54       10F 0        0.00000   0.00000   0.00000   0.00000   0.02740
  55       10F+1       -0.37731   0.00000   0.00000  -1.32276   0.00000
  56       10F-1        0.00000  -0.37731  -1.32276   0.00000   0.00000
  57       10F+2        0.00000   0.00000   0.00000   0.00000  -0.00000
  58       10F-2        0.00000   0.00000   0.00000   0.00000   0.00000
  59       10F+3        0.00000   0.00000   0.00000  -0.00000   0.00000
  60       10F-3        0.00000  -0.00000   0.00000   0.00000   0.00000
                          41        42        43        44        45
                       (DLTU)--  (DLTU)--  (SGU)--V  (DLTG)--  (DLTG)--
     Eigenvalues --     7.31012   7.31012   7.45163   7.63153   7.63153
   1 1   H  1S          0.00000   0.00000  -0.23524  -0.00000   0.00000
   2        2S          0.00000  -0.00000   6.76897  -0.00000   0.00000
   3        3S          0.00000  -0.00000   7.97854   0.00000   0.00000
   4        4S          0.00000   0.00000  -0.27713  -0.00000   0.00000
   5        5PX         0.00000   0.00000   0.00000   0.00000   0.00000
   6        5PY         0.00000   0.00000   0.00000   0.00000   0.00000
   7        5PZ         0.00000   0.00000  -0.27322   0.00000   0.00000
   8        6PX         0.00000   0.00000   0.00000   0.00000   0.00000
   9        6PY         0.00000   0.00000   0.00000   0.00000   0.00000
  10        6PZ         0.00000   0.00000  -4.28915  -0.00000   0.00000
  11        7PX         0.00000   0.00000   0.00000   0.00000   0.00000
  12        7PY         0.00000   0.00000   0.00000   0.00000   0.00000
  13        7PZ         0.00000   0.00000  -3.17247  -0.00000   0.00000
  14        8D 0        0.00000  -0.00000   0.38588  -0.00000   0.00000
  15        8D+1        0.00000   0.00000   0.00000   0.00000   0.00000
  16        8D-1        0.00000   0.00000   0.00000   0.00000   0.00000
  17        8D+2        0.00000   0.36710   0.00000   0.84073   0.00000
  18        8D-2        0.36710   0.00000   0.00000   0.00000   0.84073
  19        9D 0        0.00000  -0.00000   1.93858   0.00000   0.00000
  20        9D+1        0.00000   0.00000   0.00000   0.00000   0.00000
  21        9D-1        0.00000   0.00000   0.00000   0.00000   0.00000
  22        9D+2        0.00000  -0.93045  -0.00000  -0.34242   0.00000
  23        9D-2       -0.93045   0.00000   0.00000   0.00000  -0.34242
  24       10F 0        0.00000   0.00000  -1.29901   0.00000   0.00000
  25       10F+1        0.00000   0.00000   0.00000   0.00000   0.00000
  26       10F-1        0.00000   0.00000   0.00000   0.00000   0.00000
  27       10F+2        0.00000   1.05682   0.00000   0.19896   0.00000
  28       10F-2        1.05682   0.00000   0.00000   0.00000   0.19896
  29       10F+3        0.00000   0.00000   0.00000   0.00000   0.00000
  30       10F-3        0.00000   0.00000   0.00000   0.00000   0.00000
  31 2   H  1S          0.00000  -0.00000   0.23524  -0.00000   0.00000
  32        2S          0.00000   0.00000  -6.76897  -0.00000   0.00000
  33        3S          0.00000   0.00000  -7.97854   0.00000   0.00000
  34        4S          0.00000  -0.00000   0.27713  -0.00000   0.00000
  35        5PX         0.00000   0.00000   0.00000   0.00000   0.00000
  36        5PY         0.00000   0.00000   0.00000   0.00000   0.00000
  37        5PZ         0.00000   0.00000  -0.27322  -0.00000   0.00000
  38        6PX         0.00000   0.00000   0.00000   0.00000   0.00000
  39        6PY         0.00000   0.00000   0.00000   0.00000   0.00000
  40        6PZ         0.00000   0.00000  -4.28915   0.00000   0.00000
  41        7PX         0.00000   0.00000   0.00000   0.00000   0.00000
  42        7PY         0.00000   0.00000   0.00000   0.00000   0.00000
  43        7PZ         0.00000   0.00000  -3.17247   0.00000   0.00000
  44        8D 0        0.00000   0.00000  -0.38588  -0.00000   0.00000
  45        8D+1        0.00000   0.00000   0.00000   0.00000   0.00000
  46        8D-1        0.00000   0.00000   0.00000   0.00000   0.00000
  47        8D+2        0.00000  -0.36710  -0.00000   0.84073   0.00000
  48        8D-2       -0.36710   0.00000   0.00000   0.00000   0.84073
  49        9D 0        0.00000   0.00000  -1.93858   0.00000   0.00000
  50        9D+1        0.00000   0.00000   0.00000   0.00000   0.00000
  51        9D-1        0.00000   0.00000   0.00000   0.00000   0.00000
  52        9D+2        0.00000   0.93045   0.00000  -0.34242   0.00000
  53        9D-2        0.93045   0.00000   0.00000   0.00000  -0.34242
  54       10F 0        0.00000   0.00000  -1.29901  -0.00000   0.00000
  55       10F+1        0.00000   0.00000   0.00000   0.00000   0.00000
  56       10F-1        0.00000   0.00000   0.00000   0.00000   0.00000
  57       10F+2        0.00000   1.05682   0.00000  -0.19896   0.00000
  58       10F-2        1.05682   0.00000   0.00000   0.00000  -0.19896
  59       10F+3        0.00000   0.00000   0.00000   0.00000   0.00000
  60       10F-3        0.00000   0.00000   0.00000   0.00000   0.00000
                          46        47        48        49        50
                       (PIU)--V  (PIU)--V  (SGU)--V  (PIG)--V  (PIG)--V
     Eigenvalues --     7.63529   7.63529   7.89776   8.00804   8.00804
   1 1   H  1S          0.00000   0.00000  -0.25425   0.00000   0.00000
   2        2S          0.00000   0.00000  -0.70037   0.00000   0.00000
   3        3S          0.00000   0.00000   4.71195   0.00000   0.00000
   4        4S          0.00000   0.00000   0.45571   0.00000   0.00000
   5        5PX         0.00000   0.32570   0.00000   0.00000  -1.28842
   6        5PY         0.32570   0.00000   0.00000  -1.28842   0.00000
   7        5PZ         0.00000   0.00000  -0.72432   0.00000   0.00000
   8        6PX         0.00000  -0.53184   0.00000   0.00000   3.11418
   9        6PY        -0.53184   0.00000   0.00000   3.11418   0.00000
  10        6PZ         0.00000   0.00000   1.74441   0.00000   0.00000
  11        7PX         0.00000   0.15951   0.00000   0.00000   0.14555
  12        7PY         0.15951   0.00000   0.00000   0.14555   0.00000
  13        7PZ         0.00000   0.00000  -2.44691   0.00000   0.00000
  14        8D 0        0.00000   0.00000  -0.76667   0.00000   0.00000
  15        8D+1        0.00000   0.80622   0.00000   0.00000  -0.23525
  16        8D-1        0.80622   0.00000   0.00000  -0.23525   0.00000
  17        8D+2        0.00000   0.00000  -0.00000   0.00000   0.00000
  18        8D-2        0.00000   0.00000   0.00000   0.00000   0.00000
  19        9D 0        0.00000   0.00000   0.35644   0.00000   0.00000
  20        9D+1        0.00000  -0.62124   0.00000   0.00000  -1.51633
  21        9D-1       -0.62124   0.00000   0.00000  -1.51633   0.00000
  22        9D+2        0.00000   0.00000   0.00000   0.00000   0.00000
  23        9D-2        0.00000   0.00000   0.00000   0.00000   0.00000
  24       10F 0        0.00000   0.00000   0.07272   0.00000   0.00000
  25       10F+1        0.00000   0.42425   0.00000   0.00000   0.50793
  26       10F-1        0.42425   0.00000   0.00000   0.50793   0.00000
  27       10F+2        0.00000   0.00000  -0.00000   0.00000   0.00000
  28       10F-2        0.00000   0.00000   0.00000   0.00000   0.00000
  29       10F+3        0.00000   0.00000   0.00000   0.00000  -0.00000
  30       10F-3       -0.00000   0.00000   0.00000   0.00000   0.00000
  31 2   H  1S          0.00000   0.00000   0.25425   0.00000   0.00000
  32        2S          0.00000   0.00000   0.70037   0.00000   0.00000
  33        3S          0.00000   0.00000  -4.71195   0.00000   0.00000
  34        4S          0.00000   0.00000  -0.45571   0.00000   0.00000
  35        5PX         0.00000   0.32570   0.00000   0.00000   1.28842
  36        5PY         0.32570   0.00000   0.00000   1.28842   0.00000
  37        5PZ         0.00000   0.00000  -0.72432   0.00000   0.00000
  38        6PX         0.00000  -0.53184   0.00000   0.00000  -3.11418
  39        6PY        -0.53184   0.00000   0.00000  -3.11418   0.00000
  40        6PZ         0.00000   0.00000   1.74441   0.00000   0.00000
  41        7PX         0.00000   0.15951   0.00000   0.00000  -0.14555
  42        7PY         0.15951   0.00000   0.00000  -0.14555   0.00000
  43        7PZ         0.00000   0.00000  -2.44691   0.00000   0.00000
  44        8D 0        0.00000   0.00000   0.76667   0.00000   0.00000
  45        8D+1        0.00000  -0.80622   0.00000   0.00000  -0.23525
  46        8D-1       -0.80622   0.00000   0.00000  -0.23525   0.00000
  47        8D+2        0.00000   0.00000   0.00000   0.00000   0.00000
  48        8D-2        0.00000   0.00000   0.00000   0.00000   0.00000
  49        9D 0        0.00000   0.00000  -0.35644   0.00000   0.00000
  50        9D+1        0.00000   0.62124   0.00000   0.00000  -1.51633
  51        9D-1        0.62124   0.00000   0.00000  -1.51633   0.00000
  52        9D+2        0.00000   0.00000  -0.00000   0.00000   0.00000
  53        9D-2        0.00000   0.00000   0.00000   0.00000   0.00000
  54       10F 0        0.00000   0.00000   0.07272   0.00000   0.00000
  55       10F+1        0.00000   0.42425   0.00000   0.00000  -0.50793
  56       10F-1        0.42425   0.00000   0.00000  -0.50793   0.00000
  57       10F+2        0.00000   0.00000  -0.00000   0.00000   0.00000
  58       10F-2        0.00000   0.00000   0.00000   0.00000   0.00000
  59       10F+3        0.00000   0.00000   0.00000   0.00000   0.00000
  60       10F-3       -0.00000   0.00000   0.00000  -0.00000   0.00000
                          51        52        53        54        55
                       (SGG)--V  (PIU)--V  (PIU)--V  (DLTU)--  (DLTU)--
     Eigenvalues --     8.17023   8.46776   8.46776   8.84226   8.84226
   1 1   H  1S         -0.61293   0.00000   0.00000   0.00000  -0.00000
   2        2S         -0.86676   0.00000   0.00000   0.00000   0.00000
   3        3S          0.41112   0.00000   0.00000   0.00000  -0.00000
   4        4S          0.03056   0.00000   0.00000   0.00000   0.00000
   5        5PX         0.00000   0.96374   0.00000   0.00000   0.00000
   6        5PY         0.00000   0.00000   0.96374   0.00000   0.00000
   7        5PZ         0.21780   0.00000   0.00000   0.00000   0.00000
   8        6PX         0.00000  -0.43581   0.00000   0.00000   0.00000
   9        6PY         0.00000   0.00000  -0.43581   0.00000   0.00000
  10        6PZ        -0.48668   0.00000   0.00000   0.00000  -0.00000
  11        7PX         0.00000   0.09474   0.00000   0.00000   0.00000
  12        7PY         0.00000   0.00000   0.09474   0.00000   0.00000
  13        7PZ        -0.89891   0.00000   0.00000   0.00000   0.00000
  14        8D 0       -0.73299   0.00000   0.00000   0.00000   0.00000
  15        8D+1        0.00000  -0.17536   0.00000   0.00000   0.00000
  16        8D-1        0.00000   0.00000  -0.17536   0.00000   0.00000
  17        8D+2       -0.00000   0.00000   0.00000   0.00000   0.86690
  18        8D-2        0.00000   0.00000   0.00000   0.86690   0.00000
  19        9D 0        1.36595   0.00000   0.00000   0.00000  -0.00000
  20        9D+1        0.00000   0.31105   0.00000   0.00000   0.00000
  21        9D-1        0.00000   0.00000   0.31105   0.00000   0.00000
  22        9D+2        0.00000   0.00000   0.00000   0.00000  -0.02129
  23        9D-2        0.00000   0.00000   0.00000  -0.02129   0.00000
  24       10F 0       -0.42657   0.00000   0.00000   0.00000   0.00000
  25       10F+1        0.00000  -0.79914   0.00000   0.00000   0.00000
  26       10F-1        0.00000   0.00000  -0.79914   0.00000   0.00000
  27       10F+2       -0.00000   0.00000   0.00000   0.00000  -0.78106
  28       10F-2        0.00000   0.00000   0.00000  -0.78106   0.00000
  29       10F+3        0.00000   0.00000   0.00000   0.00000   0.00000
  30       10F-3        0.00000   0.00000  -0.00000   0.00000   0.00000
  31 2   H  1S         -0.61293   0.00000   0.00000   0.00000   0.00000
  32        2S         -0.86676   0.00000   0.00000   0.00000  -0.00000
  33        3S          0.41112   0.00000   0.00000   0.00000   0.00000
  34        4S          0.03056   0.00000   0.00000   0.00000  -0.00000
  35        5PX         0.00000   0.96374   0.00000   0.00000   0.00000
  36        5PY         0.00000   0.00000   0.96374   0.00000   0.00000
  37        5PZ        -0.21780   0.00000   0.00000   0.00000   0.00000
  38        6PX         0.00000  -0.43581   0.00000   0.00000   0.00000
  39        6PY         0.00000   0.00000  -0.43581   0.00000   0.00000
  40        6PZ         0.48668   0.00000   0.00000   0.00000  -0.00000
  41        7PX         0.00000   0.09474   0.00000   0.00000   0.00000
  42        7PY         0.00000   0.00000   0.09474   0.00000   0.00000
  43        7PZ         0.89891   0.00000   0.00000   0.00000   0.00000
  44        8D 0       -0.73299   0.00000   0.00000   0.00000  -0.00000
  45        8D+1        0.00000   0.17536   0.00000   0.00000   0.00000
  46        8D-1        0.00000   0.00000   0.17536   0.00000   0.00000
  47        8D+2       -0.00000   0.00000   0.00000   0.00000  -0.86690
  48        8D-2        0.00000   0.00000   0.00000  -0.86690   0.00000
  49        9D 0        1.36595   0.00000   0.00000   0.00000   0.00000
  50        9D+1        0.00000  -0.31105   0.00000   0.00000   0.00000
  51        9D-1        0.00000   0.00000  -0.31105   0.00000   0.00000
  52        9D+2        0.00000   0.00000   0.00000   0.00000   0.02129
  53        9D-2        0.00000   0.00000   0.00000   0.02129   0.00000
  54       10F 0        0.42657   0.00000   0.00000   0.00000   0.00000
  55       10F+1        0.00000  -0.79914   0.00000   0.00000   0.00000
  56       10F-1        0.00000   0.00000  -0.79914   0.00000   0.00000
  57       10F+2        0.00000   0.00000   0.00000   0.00000  -0.78106
  58       10F-2        0.00000   0.00000   0.00000  -0.78106   0.00000
  59       10F+3        0.00000   0.00000   0.00000   0.00000   0.00000
  60       10F-3        0.00000   0.00000  -0.00000   0.00000   0.00000
                          56        57        58        59        60
                       (SGU)--V  (PIG)--V  (PIG)--V  (SGG)--V  (SGU)--V
     Eigenvalues --    10.04214  12.36388  12.36388  12.57254  15.65856
   1 1   H  1S         -1.33013   0.00000   0.00000   1.37539  -1.37801
   2        2S          5.87737   0.00000   0.00000   0.89570  14.20316
   3        3S          6.95057   0.00000   0.00000  -0.83135   8.25801
   4        4S         -0.47140   0.00000   0.00000   0.13871  -0.54299
   5        5PX         0.00000   0.07303   0.00000   0.00000   0.00000
   6        5PY         0.00000   0.00000   0.07303   0.00000   0.00000
   7        5PZ         0.89420   0.00000   0.00000  -1.39239  -1.39075
   8        6PX         0.00000   3.26065   0.00000   0.00000   0.00000
   9        6PY         0.00000   0.00000   3.26065   0.00000   0.00000
  10        6PZ        -4.27731   0.00000   0.00000   1.82119  -9.15128
  11        7PX         0.00000   0.46208   0.00000   0.00000   0.00000
  12        7PY         0.00000   0.00000   0.46208   0.00000   0.00000
  13        7PZ        -2.50890   0.00000   0.00000   0.39596  -3.01168
  14        8D 0       -0.15286   0.00000   0.00000  -0.46738   2.37909
  15        8D+1        0.00000  -1.76220   0.00000   0.00000   0.00000
  16        8D-1        0.00000   0.00000  -1.76220   0.00000   0.00000
  17        8D+2       -0.00000   0.00000   0.00000  -0.00000  -0.00000
  18        8D-2        0.00000   0.00000   0.00000   0.00000   0.00000
  19        9D 0        1.34689   0.00000   0.00000  -1.18394   2.43222
  20        9D+1        0.00000  -1.71705   0.00000   0.00000   0.00000
  21        9D-1        0.00000   0.00000  -1.71705   0.00000   0.00000
  22        9D+2        0.00000   0.00000   0.00000   0.00000   0.00000
  23        9D-2        0.00000   0.00000   0.00000   0.00000   0.00000
  24       10F 0        0.18151   0.00000   0.00000   0.83523  -0.88417
  25       10F+1        0.00000   1.35602   0.00000   0.00000   0.00000
  26       10F-1        0.00000   0.00000   1.35602   0.00000   0.00000
  27       10F+2        0.00000   0.00000   0.00000   0.00000   0.00000
  28       10F-2        0.00000   0.00000   0.00000   0.00000   0.00000
  29       10F+3        0.00000   0.00000   0.00000   0.00000   0.00000
  30       10F-3        0.00000   0.00000  -0.00000   0.00000   0.00000
  31 2   H  1S          1.33013   0.00000   0.00000   1.37539   1.37801
  32        2S         -5.87737   0.00000   0.00000   0.89570 -14.20316
  33        3S         -6.95057   0.00000   0.00000  -0.83135  -8.25801
  34        4S          0.47140   0.00000   0.00000   0.13871   0.54299
  35        5PX         0.00000  -0.07303   0.00000   0.00000   0.00000
  36        5PY         0.00000   0.00000  -0.07303   0.00000   0.00000
  37        5PZ         0.89420   0.00000   0.00000   1.39239  -1.39075
  38        6PX         0.00000  -3.26065   0.00000   0.00000   0.00000
  39        6PY         0.00000   0.00000  -3.26065   0.00000   0.00000
  40        6PZ        -4.27731   0.00000   0.00000  -1.82119  -9.15128
  41        7PX         0.00000  -0.46208   0.00000   0.00000   0.00000
  42        7PY         0.00000   0.00000  -0.46208   0.00000   0.00000
  43        7PZ        -2.50890   0.00000   0.00000  -0.39596  -3.01168
  44        8D 0        0.15286   0.00000   0.00000  -0.46738  -2.37909
  45        8D+1        0.00000  -1.76220   0.00000   0.00000   0.00000
  46        8D-1        0.00000   0.00000  -1.76220   0.00000   0.00000
  47        8D+2        0.00000   0.00000   0.00000  -0.00000   0.00000
  48        8D-2        0.00000   0.00000   0.00000   0.00000   0.00000
  49        9D 0       -1.34689   0.00000   0.00000  -1.18394  -2.43222
  50        9D+1        0.00000  -1.71705   0.00000   0.00000   0.00000
  51        9D-1        0.00000   0.00000  -1.71705   0.00000   0.00000
  52        9D+2       -0.00000   0.00000   0.00000   0.00000  -0.00000
  53        9D-2        0.00000   0.00000   0.00000   0.00000   0.00000
  54       10F 0        0.18151   0.00000   0.00000  -0.83523  -0.88417
  55       10F+1        0.00000  -1.35602   0.00000   0.00000   0.00000
  56       10F-1        0.00000   0.00000  -1.35602   0.00000   0.00000
  57       10F+2        0.00000   0.00000   0.00000  -0.00000   0.00000
  58       10F-2        0.00000   0.00000   0.00000   0.00000   0.00000
  59       10F+3        0.00000  -0.00000   0.00000   0.00000   0.00000
  60       10F-3        0.00000   0.00000   0.00000   0.00000   0.00000
     Density Matrix:
                           1         2         3         4         5
   1 1   H  1S          0.01116
   2        2S          0.02841   0.07231
   3        3S          0.03800   0.09673   0.12940
   4        4S          0.01473   0.03749   0.05015   0.01944
   5        5PX        -0.00000  -0.00000  -0.00000  -0.00000   0.00000
   6        5PY        -0.00000  -0.00000  -0.00000  -0.00000   0.00000
   7        5PZ        -0.00076  -0.00193  -0.00259  -0.00100   0.00000
   8        6PX        -0.00000  -0.00000  -0.00000  -0.00000   0.00000
   9        6PY        -0.00000  -0.00000  -0.00000  -0.00000   0.00000
  10        6PZ        -0.00141  -0.00358  -0.00479  -0.00186   0.00000
  11        7PX        -0.00000  -0.00000  -0.00000  -0.00000   0.00000
  12        7PY        -0.00000  -0.00000  -0.00000  -0.00000   0.00000
  13        7PZ        -0.00179  -0.00457  -0.00611  -0.00237   0.00000
  14        8D 0        0.00020   0.00052   0.00069   0.00027  -0.00000
  15        8D+1        0.00000   0.00000   0.00000   0.00000  -0.00000
  16        8D-1        0.00000   0.00000   0.00000   0.00000   0.00000
  17        8D+2       -0.00000  -0.00000  -0.00000  -0.00000   0.00000
  18        8D-2        0.00000   0.00000   0.00000   0.00000   0.00000
  19        9D 0        0.00004   0.00010   0.00014   0.00005  -0.00000
  20        9D+1        0.00000   0.00000   0.00000   0.00000  -0.00000
  21        9D-1        0.00000   0.00000   0.00000   0.00000   0.00000
  22        9D+2        0.00000   0.00000   0.00000   0.00000  -0.00000
  23        9D-2        0.00000   0.00000   0.00000   0.00000   0.00000
  24       10F 0       -0.00001  -0.00002  -0.00003  -0.00001   0.00000
  25       10F+1       -0.00000  -0.00000  -0.00000  -0.00000   0.00000
  26       10F-1       -0.00000  -0.00000  -0.00000  -0.00000   0.00000
  27       10F+2        0.00000   0.00000   0.00000   0.00000  -0.00000
  28       10F-2        0.00000   0.00000   0.00000   0.00000   0.00000
  29       10F+3        0.00000   0.00000   0.00000   0.00000  -0.00000
  30       10F-3        0.00000   0.00000   0.00000   0.00000   0.00000
  31 2   H  1S          0.01116   0.02841   0.03800   0.01473  -0.00000
  32        2S          0.02841   0.07231   0.09673   0.03749  -0.00000
  33        3S          0.03800   0.09673   0.12940   0.05015  -0.00000
  34        4S          0.01473   0.03749   0.05015   0.01944  -0.00000
  35        5PX         0.00000   0.00000   0.00000   0.00000  -0.00000
  36        5PY         0.00000   0.00000   0.00000   0.00000   0.00000
  37        5PZ         0.00076   0.00193   0.00259   0.00100  -0.00000
  38        6PX         0.00000   0.00000   0.00000   0.00000  -0.00000
  39        6PY         0.00000   0.00000   0.00000   0.00000   0.00000
  40        6PZ         0.00141   0.00358   0.00479   0.00186  -0.00000
  41        7PX         0.00000   0.00000   0.00000   0.00000  -0.00000
  42        7PY         0.00000   0.00000   0.00000   0.00000   0.00000
  43        7PZ         0.00179   0.00457   0.00611   0.00237  -0.00000
  44        8D 0        0.00020   0.00052   0.00069   0.00027  -0.00000
  45        8D+1        0.00000   0.00000   0.00000   0.00000  -0.00000
  46        8D-1        0.00000   0.00000   0.00000   0.00000   0.00000
  47        8D+2       -0.00000  -0.00000  -0.00000  -0.00000   0.00000
  48        8D-2        0.00000   0.00000   0.00000   0.00000   0.00000
  49        9D 0        0.00004   0.00010   0.00014   0.00005  -0.00000
  50        9D+1        0.00000   0.00000   0.00000   0.00000  -0.00000
  51        9D-1        0.00000   0.00000   0.00000   0.00000   0.00000
  52        9D+2        0.00000   0.00000   0.00000   0.00000  -0.00000
  53        9D-2        0.00000   0.00000   0.00000   0.00000   0.00000
  54       10F 0        0.00001   0.00002   0.00003   0.00001  -0.00000
  55       10F+1        0.00000   0.00000   0.00000   0.00000  -0.00000
  56       10F-1        0.00000   0.00000   0.00000   0.00000   0.00000
  57       10F+2       -0.00000  -0.00000  -0.00000  -0.00000   0.00000
  58       10F-2        0.00000   0.00000   0.00000   0.00000   0.00000
  59       10F+3       -0.00000  -0.00000  -0.00000  -0.00000   0.00000
  60       10F-3       -0.00000  -0.00000  -0.00000  -0.00000   0.00000
                           6         7         8         9        10
   6        5PY         0.00000
   7        5PZ         0.00000   0.00005
   8        6PX         0.00000   0.00000   0.00000
   9        6PY         0.00000   0.00000   0.00000   0.00000
  10        6PZ         0.00000   0.00010   0.00000   0.00000   0.00018
  11        7PX         0.00000   0.00000   0.00000   0.00000   0.00000
  12        7PY         0.00000   0.00000   0.00000   0.00000   0.00000
  13        7PZ         0.00000   0.00012   0.00000   0.00000   0.00023
  14        8D 0       -0.00000  -0.00001  -0.00000  -0.00000  -0.00003
  15        8D+1       -0.00000  -0.00000  -0.00000  -0.00000  -0.00000
  16        8D-1       -0.00000  -0.00000   0.00000  -0.00000  -0.00000
  17        8D+2        0.00000   0.00000   0.00000   0.00000   0.00000
  18        8D-2       -0.00000   0.00000   0.00000  -0.00000   0.00000
  19        9D 0       -0.00000  -0.00000  -0.00000  -0.00000  -0.00001
  20        9D+1       -0.00000  -0.00000  -0.00000  -0.00000  -0.00000
  21        9D-1       -0.00000  -0.00000   0.00000  -0.00000  -0.00000
  22        9D+2       -0.00000  -0.00000  -0.00000  -0.00000  -0.00000
  23        9D-2        0.00000   0.00000   0.00000   0.00000   0.00000
  24       10F 0        0.00000   0.00000   0.00000   0.00000   0.00000
  25       10F+1        0.00000   0.00000   0.00000   0.00000   0.00000
  26       10F-1        0.00000   0.00000   0.00000   0.00000   0.00000
  27       10F+2       -0.00000  -0.00000  -0.00000  -0.00000  -0.00000
[...]
  54       10F 0        0.00000   0.00000   0.00000   0.00000   0.00000
  55       10F+1       -0.00000   0.00000   0.00000   0.00000   0.00000
  56       10F-1        0.00000  -0.00000   0.00000   0.00000   0.00000
  57       10F+2        0.00000   0.00000   0.00000   0.00000   0.00000
  58       10F-2        0.00000   0.00000   0.00000   0.00000   0.00000
  59       10F+3        0.00000   0.00000   0.00000   0.00000   0.00000
  60       10F-3        0.00000  -0.00000   0.00000   0.00000   0.00000
                          46        47        48        49        50
  46        8D-1        0.00000
  47        8D+2        0.00000  -0.00000
  48        8D-2        0.00000   0.00000   0.00000
  49        9D 0        0.00000   0.00000   0.00000   0.00000
  50        9D+1        0.00000   0.00000   0.00000   0.00000   0.00000
  51        9D-1        0.00000   0.00000   0.00000   0.00000   0.00000
  52        9D+2        0.00000   0.00000   0.00000   0.00000   0.00000
  53        9D-2        0.00000   0.00000   0.00000   0.00000   0.00000
  54       10F 0        0.00000   0.00000   0.00000   0.00000   0.00000
  55       10F+1        0.00000   0.00000   0.00000   0.00000   0.00000
  56       10F-1        0.00000   0.00000   0.00000   0.00000   0.00000
  57       10F+2        0.00000   0.00000   0.00000   0.00000   0.00000
  58       10F-2        0.00000   0.00000   0.00000   0.00000   0.00000
  59       10F+3        0.00000   0.00000   0.00000   0.00000   0.00000
  60       10F-3        0.00000   0.00000   0.00000   0.00000   0.00000
                          51        52        53        54        55
  51        9D-1        0.00000
  52        9D+2        0.00000  -0.00000
  53        9D-2        0.00000   0.00000   0.00000
  54       10F 0        0.00000   0.00000   0.00000   0.00000
  55       10F+1        0.00000   0.00000   0.00000   0.00000   0.00000
  56       10F-1        0.00000   0.00000   0.00000   0.00000   0.00000
  57       10F+2        0.00000   0.00000   0.00000   0.00000   0.00000
  58       10F-2        0.00000   0.00000   0.00000   0.00000   0.00000
  59       10F+3        0.00000   0.00000   0.00000   0.00000  -0.00000
  60       10F-3        0.00000   0.00000   0.00000   0.00000   0.00000
                          56        57        58        59        60
  56       10F-1        0.00000
  57       10F+2        0.00000  -0.00000
  58       10F-2        0.00000   0.00000  -0.00000
  59       10F+3        0.00000   0.00000   0.00000  -0.00000
  60       10F-3        0.00000   0.00000   0.00000   0.00000  -0.00000
     Gross orbital populations:
                           1
   1 1   H  1S          0.06778
   2        2S          0.29846
   3        3S          0.46616
   4        4S          0.15359
   5        5PX         0.00000
   6        5PY         0.00000
   7        5PZ         0.00124
   8        6PX         0.00000
   9        6PY         0.00000
  10        6PZ         0.00477
  11        7PX         0.00000
  12        7PY         0.00000
  13        7PZ         0.00769
  14        8D 0        0.00019
  15        8D+1        0.00000
  16        8D-1        0.00000
  17        8D+2       -0.00000
  18        8D-2        0.00000
  19        9D 0        0.00010
  20        9D+1        0.00000
  21        9D-1        0.00000
  22        9D+2       -0.00000
  23        9D-2        0.00000
  24       10F 0        0.00001
  25       10F+1        0.00000
  26       10F-1        0.00000
  27       10F+2       -0.00000
  28       10F-2       -0.00000
  29       10F+3       -0.00000
  30       10F-3       -0.00000
  31 2   H  1S          0.06778
  32        2S          0.29846
  33        3S          0.46616
  34        4S          0.15359
  35        5PX         0.00000
  36        5PY         0.00000
  37        5PZ         0.00124
  38        6PX         0.00000
  39        6PY         0.00000
  40        6PZ         0.00477
  41        7PX         0.00000
  42        7PY         0.00000
  43        7PZ         0.00769
  44        8D 0        0.00019
  45        8D+1       -0.00000
  46        8D-1       -0.00000
  47        8D+2       -0.00000
  48        8D-2        0.00000
  49        9D 0        0.00010
  50        9D+1       -0.00000
  51        9D-1       -0.00000
  52        9D+2       -0.00000
  53        9D-2        0.00000
  54       10F 0        0.00001
  55       10F+1       -0.00000
  56       10F-1       -0.00000
  57       10F+2       -0.00000
  58       10F-2       -0.00000
  59       10F+3       -0.00000
  60       10F-3       -0.00000
          Condensed to atoms (all electrons):
              1          2
     1  H    0.580508   0.419492
     2  H    0.419492   0.580508
 Mulliken atomic charges:
              1
     1  H    0.000000
     2  H    0.000000
 Sum of Mulliken atomic charges =   0.00000
 Mulliken charges with hydrogens summed into heavy atoms:
              1
 Sum of Mulliken charges with hydrogens summed into heavy atoms =   0.00000
 APT atomic charges:
              1
     1  H    0.000000
     2  H    0.000000
 Sum of APT charges=   0.00000
 APT Atomic charges with hydrogens summed into heavy atoms:
              1
     1  H    0.000000
     2  H    0.000000
 Sum of APT charges=   0.00000
 Electronic spatial extent (au):  <R**2>=              5.1762
 Charge=              0.0000 electrons
 Dipole moment (field-independent basis, Debye):
    X=              0.0000    Y=             -0.0000    Z=              0.0000  Tot=              0.0000
 Quadrupole moment (field-independent basis, Debye-Ang):
   XX=             -2.0775   YY=             -2.0775   ZZ=             -1.4799
   XY=             -0.0000   XZ=             -0.0000   YZ=              0.0000
 Traceless Quadrupole moment (field-independent basis, Debye-Ang):
   XX=             -0.1992   YY=             -0.1992   ZZ=              0.3984
   XY=             -0.0000   XZ=             -0.0000   YZ=              0.0000
 Octapole moment (field-independent basis, Debye-Ang**2):
  XXX=             -0.0000  YYY=             -0.0000  ZZZ=             -0.0000  XYY=             -0.0000
  XXY=             -0.0000  XXZ=             -0.0000  XZZ=             -0.0000  YZZ=              0.0000
  YYZ=             -0.0000  XYZ=              0.0000
 Hexadecapole moment (field-independent basis, Debye-Ang**3):
 XXXX=             -2.0960 YYYY=             -2.0960 ZZZZ=             -2.8690 XXXY=             -0.0000
 XXXZ=              0.0000 YYYX=             -0.0000 YYYZ=              0.0000 ZZZX=              0.0000
 ZZZY=              0.0000 XXYY=             -0.6987 XXZZ=             -0.8450 YYZZ=             -0.8450
 XXYZ=              0.0000 YYXZ=              0.0000 ZZXY=             -0.0000
 N-N= 7.117958383124D-01 E-N=-3.644829993637D+00  KE= 1.140967474017D+00
 Symmetry AG   KE= 1.140967474017D+00
 Symmetry B1G  KE= 4.231404290523D-55
 Symmetry B2G  KE= 1.863677204106D-31
 Symmetry B3G  KE= 1.863677204106D-31
 Symmetry AU   KE=-3.046244433691D-56
 Symmetry B1U  KE= 8.977574280430D-24
 Symmetry B2U  KE= 8.065929935556D-34
 Symmetry B3U  KE= 8.065929935556D-34
 Orbital energies and kinetic energies (alpha):
                                 1                 2
   1 (SGG)--O                 -0.432006          0.570484
   2 (SGU)--V                  0.060212          0.306065
   3 (SGG)--V                  0.156175          0.383710
   4 (PIU)--V                  0.360019          0.635811
   5 (PIU)--V                  0.360019          0.635811
   6 (SGU)--V                  0.379760          0.829880
   7 (SGG)--V                  0.664783          0.887883
   8 (PIG)--V                  0.680088          0.867138
   9 (PIG)--V                  0.680088          0.867138
  10 (SGU)--V                  0.996225          1.131948
  11 (SGG)--V                  1.119646          1.716978
  12 (SGU)--V                  1.362291          2.153122
  13 (DLTG)--V                 1.710525          2.053443
  14 (DLTG)--V                 1.710525          2.053443
  15 (PIU)--V                  1.895761          2.443820
  16 (PIU)--V                  1.895761          2.443820
  17 (SGG)--V                  2.121774          2.616232
  18 (PIG)--V                  2.158088          2.525501
  19 (PIG)--V                  2.158088          2.525501
  20 (PIU)--V                  2.331350          2.676471
  21 (PIU)--V                  2.331350          2.676471
  22 (DLTU)--V                 2.335409          2.639815
  23 (DLTU)--V                 2.335409          2.639815
  24 (SGU)--V                  2.787138          3.162679
  25 (SGG)--V                  3.090237          3.633754
  26 (PIG)--V                  3.360661          3.797845
  27 (PIG)--V                  3.360661          3.797845
  28 (SGU)--V                  3.690043          4.750910
  29 (SGG)--V                  5.247215          6.428255
  30 (PHIU)--V                 5.390485          5.898944
  31 (PHIU)--V                 5.390485          5.898944
  32 (DLTG)--V                 5.896554          6.488465
  33 (DLTG)--V                 5.896554          6.488465
  34 (PHIG)--V                 6.438571          6.935075
  35 (PHIG)--V                 6.438571          6.935075
  36 (PIU)--V                  6.604082          7.593505
  37 (PIU)--V                  6.604082          7.593505
  38 (PIG)--V                  6.797259          7.339554
  39 (PIG)--V                  6.797259          7.339554
  40 (SGG)--V                  6.969971          8.283544
  41 (DLTU)--V                 7.316621          7.878551
  42 (DLTU)--V                 7.316621          7.878551
  43 (SGU)--V                  7.445152          7.980858
  44 (DLTG)--V                 7.633382          8.434003
  45 (DLTG)--V                 7.633382          8.434003
  46 (PIU)--V                  7.638098          8.470457
  47 (PIU)--V                  7.638098          8.470457
  48 (SGU)--V                  7.885537          9.049922
  49 (PIG)--V                  8.002759          9.168222
  50 (PIG)--V                  8.002759          9.168222
  51 (SGG)--V                  8.163222          9.297769
  52 (PIU)--V                  8.453743          9.297957
  53 (PIU)--V                  8.453743          9.297957
  54 (DLTU)--V                 8.820895          9.611923
  55 (DLTU)--V                 8.820896          9.611923
  56 (SGU)--V                 10.023481         12.532548
  57 (PIG)--V                 12.326723         13.284405
  58 (PIG)--V                 12.326723         13.284405
  59 (SGG)--V                 12.520524         14.980708
  60 (SGU)--V                 15.650114         17.465176
 Total kinetic energy from orbitals= 1.140967474017D+00
  Exact polarizability:   3.531  -0.000   3.531  -0.000  -0.000   6.741
 Approx polarizability:   3.605  -0.000   3.605  -0.000  -0.000   7.866
 No NMR shielding tensors so no spin-rotation constants.
 Leave Link  601 at Sun Aug 18 15:13:22 2024, MaxMem=   13107200 cpu:       0.2
 (Enter /programs/64bit/g09/g09-gfortran/bin/l701.exe)
 Compute integral second derivatives.
 ... and contract with generalized density number  0.
 Leave Link  701 at Sun Aug 18 15:13:22 2024, MaxMem=   13107200 cpu:       0.3
 (Enter /programs/64bit/g09/g09-gfortran/bin/l702.exe)
 L702 exits ... SP integral derivatives will be done elsewhere.
 Leave Link  702 at Sun Aug 18 15:13:22 2024, MaxMem=   13107200 cpu:       0.0
 (Enter /programs/64bit/g09/g09-gfortran/bin/l703.exe)
 Compute integral second derivatives, UseDBF=F ICtDFT=           0.
 Integral derivatives from FoFDir, PRISM(SPDF).
 Calling FoFJK, ICntrl=    100127 FMM=F ISym2X=1 I1Cent= 0 IOpClX= 0 NMat=1 NMatS=1 NMatT=0.
 FoFCou: FMM=F IPFlag=           0 FMFlag=      100000 FMFlg1=         800
         NFxFlg=           0 DoJE=F BraDBF=F KetDBF=F FulRan=T
         Omega=  0.000000  0.000000  1.000000  0.000000  0.000000 ICntrl=  100127 IOpCl=  0
         NMat0=    1 NMatS0=    1 NMatT0=    0 NMatD0=    1 NMtDS0=    0 NMtDT0=    0
         I1Cent=           0 NGrid=           0.
 Petite list used in FoFCou.
 Leave Link  703 at Sun Aug 18 15:13:26 2024, MaxMem=   13107200 cpu:       4.0
 (Enter /programs/64bit/g09/g09-gfortran/bin/l716.exe)
 Dipole        = 1.23259516D-31 1.56481808D-34 2.58759155D-17
 Polarizability= 3.53103372D+00-3.64673262D-11 3.53103372D+00
                -1.27319274D-11-7.22171687D-11 6.74116225D+00
 Full mass-weighted force constant matrix:
 Low frequencies ---  -64.0662  -64.0662   -0.0005   -0.0003   -0.0003 4409.8645
 Diagonal vibrational polarizability:
        0.0000000       0.0000000       0.0000000
 Harmonic frequencies (cm**-1), IR intensities (KM/Mole), Raman scattering
 activities (A**4/AMU), depolarization ratios for plane and unpolarized
 incident light, reduced masses (AMU), force constants (mDyne/A),
 and normal coordinates:
                     1
                    SGG
 Frequencies --  4409.8645
 Red. masses --     1.0078
 Frc consts  --    11.5474
 IR Inten    --     0.0000
  Atom  AN      X      Y      Z
     1   1    -0.00   0.00   0.71
     2   1     0.00   0.00  -0.71

 -------------------
 - Thermochemistry -
 -------------------
 Temperature   298.150 Kelvin.  Pressure   1.00000 Atm.
 Atom     1 has atomic number  1 and mass   1.00783
 Atom     2 has atomic number  1 and mass   1.00783
 Molecular mass:     2.01565 amu.
 Principal axes and moments of inertia in atomic units:
                           1         2         3
     Eigenvalues --     0.00000   0.99459   0.99459
           X           -0.00000   1.00000  -0.00000
           Y            0.00000   0.00000   1.00000
           Z            1.00000   0.00000  -0.00000
 This molecule is a prolate symmetric top.
 Rotational symmetry number  2.
 Rotational temperature (Kelvin)     87.08491
 Rotational constant (GHZ):        1814.557252
 Zero-point vibrational energy      26376.8 (Joules/Mol)
                                    6.30422 (Kcal/Mol)
 Vibrational temperatures:   6344.80
          (Kelvin)
 
 Zero-point correction=                           0.010046 (Hartree/Particle)
 Thermal correction to Energy=                    0.012407
 Thermal correction to Enthalpy=                  0.013351
 Thermal correction to Gibbs Free Energy=        -0.001443
 Sum of electronic and zero-point Energies=             -1.169376
 Sum of electronic and thermal Energies=                -1.167016
 Sum of electronic and thermal Enthalpies=              -1.166071
 Sum of electronic and thermal Free Energies=           -1.180865
 
                     E (Thermal)             CV                S
                      KCal/Mol        Cal/Mol-Kelvin    Cal/Mol-Kelvin
 Total                    7.785              4.968             31.136
 Electronic               0.000              0.000              0.000
 Translational            0.889              2.981             28.080
 Rotational               0.592              1.987              3.055
 Vibrational              6.304              0.000              0.000
                       Q            Log10(Q)             Ln(Q)
 Total Bot       0.460810D+01          0.663522          1.527815
 Total V=0       0.192548D+06          5.284540         12.168103
 Vib (Bot)       0.239322D-04         -4.621018        -10.640288
 Vib (V=0)       0.100000D+01          0.000000          0.000000
 Electronic      0.100000D+01          0.000000          0.000000
 Translational   0.112481D+06          5.051078         11.630537
 Rotational      0.171184D+01          0.233462          0.537566
 ***** Axes restored to original set *****
 -------------------------------------------------------------------
 Center     Atomic                   Forces (Hartrees/Bohr)
 Number     Number              X              Y              Z
 -------------------------------------------------------------------
      1        1           0.000000000   -0.000000000   -0.000107201
      2        1          -0.000000000    0.000000000    0.000107201
 -------------------------------------------------------------------
 Cartesian Forces:  Max     0.000107201 RMS     0.000061892
 Force constants in Cartesian coordinates: 
                1             2             3             4             5 
      1 -0.782716D-04
      2  0.000000D+00 -0.782716D-04
      3  0.000000D+00  0.000000D+00  0.370849D+00
      4  0.782716D-04  0.000000D+00  0.000000D+00 -0.782716D-04
      5  0.000000D+00  0.782716D-04  0.000000D+00  0.000000D+00 -0.782716D-04
      6  0.000000D+00  0.000000D+00 -0.370849D+00  0.000000D+00  0.000000D+00
                6 
      6  0.370849D+00
 Force constants in internal coordinates: 
                1 
      1  0.370849D+00
 Leave Link  716 at Sun Aug 18 15:13:26 2024, MaxMem=   13107200 cpu:       0.0
 (Enter /programs/64bit/g09/g09-gfortran/bin/l103.exe)

 GradGradGradGradGradGradGradGradGradGradGradGradGradGradGradGradGradGrad
 Berny optimization.
 Internal  Forces:  Max     0.000107201 RMS     0.000107201
 Search for a local minimum.
 Step number   1 out of a maximum of    2
 All quantities printed in internal units (Hartrees-Bohrs-Radians)
 Second derivative matrix not updated -- analytic derivatives used.
 The second derivative matrix:
                          R1
           R1           0.37085
     Eigenvalues ---    0.37085
 Angle between quadratic step and forces=   0.00 degrees.
 Linear search not attempted -- first point.
 Iteration  1 RMS(Cart)=  0.00020440 RMS(Int)=  0.00000000
 Iteration  2 RMS(Cart)=  0.00000000 RMS(Int)=  0.00000000
 ClnCor:  largest displacement from symmetrization is 8.85D-21 for atom     2.
 Variable       Old X    -DE/DX   Delta X   Delta X   Delta X     New X
                                 (Linear)    (Quad)   (Total)
    R1        1.40490   0.00011   0.00000   0.00029   0.00029   1.40519
         Item               Value     Threshold  Converged?
 Maximum Force            0.000107     0.000450     YES
 RMS     Force            0.000107     0.000300     YES
 Maximum Displacement     0.000145     0.001800     YES
 RMS     Displacement     0.000204     0.001200     YES
 Predicted change in Energy=-1.549418D-08
 Optimization completed.
    -- Stationary point found.
                           ----------------------------
                           !   Optimized Parameters   !
                           ! (Angstroms and Degrees)  !
 --------------------------                            --------------------------
 ! Name  Definition              Value          Derivative Info.                !
 --------------------------------------------------------------------------------
 ! R1    R(1,2)                  0.7434         -DE/DX =    0.0001              !
 --------------------------------------------------------------------------------
 GradGradGradGradGradGradGradGradGradGradGradGradGradGradGradGradGradGrad

 Leave Link  103 at Sun Aug 18 15:13:26 2024, MaxMem=   13107200 cpu:       0.0
 (Enter /programs/64bit/g09/g09-gfortran/bin/l9999.exe)
 1\1\GINC-MOLMOD\Freq\RB3PW91\CC-pVQZ\H2\OSPITE\18-Aug-2024\0\\#P Geom=
 AllCheck Guess=TCheck SCRF=Check GenChk RB3PW91/CC-pVQZ Freq\\hydogen 
 (molecule) with cc-pVQZ basis set\\0,1\H,0.,0.,-0.0017197967\H,0.,0.,0
 .7417197967\\Version=EM64L-G09RevA.02\State=1-SGG\HF=-1.1794225\RMSD=1
 .441e-10\RMSF=6.189e-05\ZeroPoint=0.0100464\Thermal=0.0124069\Dipole=0
 .,0.,0.\DipoleDeriv=0.,0.,0.,0.,0.,0.,0.,0.,0.,0.,0.,0.,0.,0.,0.,0.,0.
 ,0.\Polar=3.5310337,0.,3.5310337,0.,0.,6.7411623\PG=D*H [C*(H1.H1)]\NI
 mag=0\\-0.00007827,0.,-0.00007827,0.,0.,0.37084897,0.00007827,0.,0.,-0
 .00007827,0.,0.00007827,0.,0.,-0.00007827,0.,0.,-0.37084897,0.,0.,0.37
 084897\\0.,0.,0.00010720,0.,0.,-0.00010720\\\@


 LIFE IS SO UNCERTAIN - EAT DESSERT FIRST.
 Job cpu time:  0 days  0 hours  0 minutes 14.2 seconds.
 File lengths (MBytes):  RWF=      5 Int=      0 D2E=      0 Chk=      1 Scr=      1
 Normal termination of Gaussian 09 at Sun Aug 18 15:13:27 2024.
