 Entering Gaussian System, Link 0=/programs/64bit/g09/g09-gfortran/bin/g09
 Input=h2_cc-pVDZ.com
 Output=h2_cc-pVDZ.log
 Initial command:
 /programs/64bit/g09/g09-gfortran/bin/l1.exe /home/ospite/Desktop/MMfP/Project6/H2/g09/DFT/B3PW91/Gau-15148.inp -scrdir=/home/ospite/Desktop/MMfP/Project6/H2/g09/DFT/B3PW91/
 Entering Link 1 = /programs/64bit/g09/g09-gfortran/bin/l1.exe PID=     15149.
  
 Copyright (c) 1988,1990,1992,1993,1995,1998,2003,2009, Gaussian, Inc.
                  All Rights Reserved.
  
 This is part of the Gaussian(R) 09 program.  It is based on
 the Gaussian(R) 03 system (copyright 2003, Gaussian, Inc.),
 the Gaussian(R) 98 system (copyright 1998, Gaussian, Inc.),
 the Gaussian(R) 94 system (copyright 1995, Gaussian, Inc.),
 the Gaussian 92(TM) system (copyright 1992, Gaussian, Inc.),
 the Gaussian 90(TM) system (copyright 1990, Gaussian, Inc.),
 the Gaussian 88(TM) system (copyright 1988, Gaussian, Inc.),
 the Gaussian 86(TM) system (copyright 1986, Carnegie Mellon
 University), and the Gaussian 82(TM) system (copyright 1983,
 Carnegie Mellon University). Gaussian is a federally registered
 trademark of Gaussian, Inc.
  
 This software contains proprietary and confidential information,
 including trade secrets, belonging to Gaussian, Inc.
  
 This software is provided under written license and may be
 used, copied, transmitted, or stored only in accord with that
 written license.
  
 The following legend is applicable only to US Government
 contracts under FAR:
  
                    RESTRICTED RIGHTS LEGEND
  
 Use, reproduction and disclosure by the US Government is
 subject to restrictions as set forth in subparagraphs (a)
 and (c) of the Commercial Computer Software - Restricted
 Rights clause in FAR 52.227-19.
  
 Gaussian, Inc.
 340 Quinnipiac St., Bldg. 40, Wallingford CT 06492
  
  
 ---------------------------------------------------------------
 Warning -- This program may not be used in any manner that
 competes with the business of Gaussian, Inc. or will provide
 assistance to any competitor of Gaussian, Inc.  The licensee
 of this program is prohibited from giving any competitor of
 Gaussian, Inc. access to this program.  By using this program,
 the user acknowledges that Gaussian, Inc. is engaged in the
 business of creating and licensing software in the field of
 computational chemistry and represents and warrants to the
 licensee that it is not a competitor of Gaussian, Inc. and that
 it will not use this program in any manner prohibited above.
 ---------------------------------------------------------------
  

 Cite this work as:
 Gaussian 09, Revision A.02,
 M. J. Frisch, G. W. Trucks, H. B. Schlegel, G. E. Scuseria, 
 M. A. Robb, J. R. Cheeseman, G. Scalmani, V. Barone, B. Mennucci, 
 G. A. Petersson, H. Nakatsuji, M. Caricato, X. Li, H. P. Hratchian, 
 A. F. Izmaylov, J. Bloino, G. Zheng, J. L. Sonnenberg, M. Hada, 
 M. Ehara, K. Toyota, R. Fukuda, J. Hasegawa, M. Ishida, T. Nakajima, 
 Y. Honda, O. Kitao, H. Nakai, T. Vreven, J. A. Montgomery, Jr., 
 J. E. Peralta, F. Ogliaro, M. Bearpark, J. J. Heyd, E. Brothers, 
 K. N. Kudin, V. N. Staroverov, R. Kobayashi, J. Normand, 
 K. Raghavachari, A. Rendell, J. C. Burant, S. S. Iyengar, J. Tomasi, 
 M. Cossi, N. Rega, J. M. Millam, M. Klene, J. E. Knox, J. B. Cross, 
 V. Bakken, C. Adamo, J. Jaramillo, R. Gomperts, R. E. Stratmann, 
 O. Yazyev, A. J. Austin, R. Cammi, C. Pomelli, J. W. Ochterski, 
 R. L. Martin, K. Morokuma, V. G. Zakrzewski, G. A. Voth, 
 P. Salvador, J. J. Dannenberg, S. Dapprich, A. D. Daniels, 
 O. Farkas, J. B. Foresman, J. V. Ortiz, J. Cioslowski, 
 and D. J. Fox, Gaussian, Inc., Wallingford CT, 2009.
 
 ******************************************
 Gaussian 09:  EM64L-G09RevA.02 11-Jun-2009
                17-Aug-2024 
 ******************************************
 %mem=100MB
 -------------------------------------------
 #p b3pw91/cc-pVDZ opt freq pop=full gfinput
 -------------------------------------------
 1/14=-1,18=20,19=15,26=3,38=1/1,3;
 2/9=110,12=2,17=6,18=5,40=1/2;
 3/5=16,11=2,16=1,24=10,25=1,30=1,71=1,74=-6/1,2,3;
 4//1;
 5/5=2,38=5/2;
 6/7=3,28=1/1;
 7//1,2,3,16;
 1/14=-1,18=20,19=15/3(2);
 2/9=110/2;
 99//99;
 2/9=110/2;
 3/5=16,11=2,16=1,25=1,30=1,71=1,74=-6/1,2,3;
 4/5=5,16=3/1;
 5/5=2,38=5/2;
 7//1,2,3,16;
 1/14=-1,18=20,19=15/3(-5);
 2/9=110/2;
 6/7=3,19=2,28=1/1;
 99/9=1/99;
 Leave Link    1 at Sat Aug 17 22:38:09 2024, MaxMem=   13107200 cpu:       0.1
 (Enter /programs/64bit/g09/g09-gfortran/bin/l101.exe)
 -----------------------------------------
 hydogen (molecule) with cc-pVDZ basis set
 -----------------------------------------
 Symbolic Z-matrix:
 Charge =  0 Multiplicity = 1
 H1
 H2                   1    d
       Variables:
  d                     0.74                     
 
 NAtoms=      2 NQM=      2 NQMF=      0 NMic=      0 NMicF=      0 NTot=      2.
                    Isotopes and Nuclear Properties:
 (Nuclear quadrupole moments (NQMom) in fm**2, nuclear magnetic moments (NMagM)
  in nuclear magnetons)

  Atom         1           2
 IAtWgt=           1           1
 AtmWgt=   1.0078250   1.0078250
 NucSpn=           1           1
 AtZEff=   0.0000000   0.0000000
 NQMom=    0.0000000   0.0000000
 NMagM=    2.7928460   2.7928460
 Leave Link  101 at Sat Aug 17 22:38:09 2024, MaxMem=   13107200 cpu:       0.1
 (Enter /programs/64bit/g09/g09-gfortran/bin/l103.exe)

 GradGradGradGradGradGradGradGradGradGradGradGradGradGradGradGradGradGrad
 Berny optimization.
 Initialization pass.
                           ----------------------------
                           !    Initial Parameters    !
                           ! (Angstroms and Degrees)  !
 --------------------------                            --------------------------
 ! Name  Definition              Value          Derivative Info.                !
 --------------------------------------------------------------------------------
 ! R1    R(1,2)                  0.74           estimate D2E/DX2                !
 --------------------------------------------------------------------------------
 Trust Radius=3.00D-01 FncErr=1.00D-07 GrdErr=1.00D-06
 Number of steps in this run=  20 maximum allowed number of steps= 100.
 GradGradGradGradGradGradGradGradGradGradGradGradGradGradGradGradGradGrad

 Leave Link  103 at Sat Aug 17 22:38:09 2024, MaxMem=   13107200 cpu:       0.0
 (Enter /programs/64bit/g09/g09-gfortran/bin/l202.exe)
                          Input orientation:                          
 ---------------------------------------------------------------------
 Center     Atomic      Atomic             Coordinates (Angstroms)
 Number     Number       Type             X           Y           Z
 ---------------------------------------------------------------------
      1          1           0        0.000000    0.000000    0.000000
      2          1           0        0.000000    0.000000    0.740000
 ---------------------------------------------------------------------
 Stoichiometry    H2
 Framework group  D*H[C*(H.H)]
 Deg. of freedom     1
 Full point group                 D*H     NOp   8
 Largest Abelian subgroup         D2H     NOp   8
 Largest concise Abelian subgroup C2      NOp   2
                         Standard orientation:                         
 ---------------------------------------------------------------------
 Center     Atomic      Atomic             Coordinates (Angstroms)
 Number     Number       Type             X           Y           Z
 ---------------------------------------------------------------------
      1          1           0        0.000000    0.000000    0.370000
      2          1           0        0.000000    0.000000   -0.370000
 ---------------------------------------------------------------------
 Rotational constants (GHZ):      0.0000000   1831.4649389   1831.4649389
 Leave Link  202 at Sat Aug 17 22:38:09 2024, MaxMem=   13107200 cpu:       0.0
 (Enter /programs/64bit/g09/g09-gfortran/bin/l301.exe)
 Standard basis: CC-pVDZ (5D, 7F)
 Ernie: Thresh=  0.10000D-02 Tol=  0.10000D-05 Strict=F.
 AO basis set in the form of general basis input (Overlap normalization):
      1 0
 S   3 1.00       0.000000000000
      0.1301000000D+02  0.3349872639D-01
      0.1962000000D+01  0.2348008012D+00
      0.4446000000D+00  0.8136829579D+00
 S   1 1.00       0.000000000000
      0.1220000000D+00  0.1000000000D+01
 P   1 1.00       0.000000000000
      0.7270000000D+00  0.1000000000D+01
 ****
      2 0
 S   3 1.00       0.000000000000
      0.1301000000D+02  0.3349872639D-01
      0.1962000000D+01  0.2348008012D+00
      0.4446000000D+00  0.8136829579D+00
 S   1 1.00       0.000000000000
      0.1220000000D+00  0.1000000000D+01
 P   1 1.00       0.000000000000
      0.7270000000D+00  0.1000000000D+01
 ****

 There are     3 symmetry adapted basis functions of AG  symmetry.
 There are     0 symmetry adapted basis functions of B1G symmetry.
 There are     1 symmetry adapted basis functions of B2G symmetry.
 There are     1 symmetry adapted basis functions of B3G symmetry.
 There are     0 symmetry adapted basis functions of AU  symmetry.
 There are     3 symmetry adapted basis functions of B1U symmetry.
 There are     1 symmetry adapted basis functions of B2U symmetry.
 There are     1 symmetry adapted basis functions of B3U symmetry.
 Integral buffers will be    131072 words long.
 Raffenetti 2 integral format.
 Two-electron integral symmetry is turned on.
    10 basis functions,    14 primitive gaussians,    10 cartesian basis functions
     1 alpha electrons        1 beta electrons
       nuclear repulsion energy         0.7151043359 Hartrees.
 IExCor=  408 DFT=T Ex+Corr=B3PW91 ExCW=0 ScaHFX=  0.200000
 ScaDFX=  0.800000  0.720000  1.000000  0.810000 ScalE2=  1.000000  1.000000
 IRadAn=      0 IRanWt=     -1 IRanGd=            0 ICorTp=0
 NAtoms=    2 NActive=    2 NUniq=    1 SFac= 3.00D+00 NAtFMM=   80 NAOKFM=F Big=F
 Leave Link  301 at Sat Aug 17 22:38:09 2024, MaxMem=   13107200 cpu:       0.1
 (Enter /programs/64bit/g09/g09-gfortran/bin/l302.exe)
 NPDir=0 NMtPBC=     1 NCelOv=     1 NCel=       1 NClECP=     1 NCelD=      1
         NCelK=      1 NCelE2=     1 NClLst=     1 CellRange=     0.0.
 One-electron integrals computed using PRISM.
 One-electron integral symmetry used in STVInt
 NBasis=    10 RedAO= T  NBF=     3     0     1     1     0     3     1     1
 NBsUse=    10 1.00D-06 NBFU=     3     0     1     1     0     3     1     1
 Precomputing XC quadrature grid using
 IXCGrd= 2 IRadAn=           0 IRanWt=          -1 IRanGd=           0 AccXCQ= 1.00D-10.
 NRdTot=     122 NPtTot=       15460 NUsed=       16353 NTot=       16385
 NSgBfM=    10    10    10    10    10 NAtAll=     2     2.
 Leave Link  302 at Sat Aug 17 22:38:10 2024, MaxMem=   13107200 cpu:       0.2
 (Enter /programs/64bit/g09/g09-gfortran/bin/l303.exe)
 DipDrv:  MaxL=1.
 Leave Link  303 at Sat Aug 17 22:38:10 2024, MaxMem=   13107200 cpu:       0.0
 (Enter /programs/64bit/g09/g09-gfortran/bin/l401.exe)
 Harris functional with IExCor=  408 diagonalized for initial guess.
 ExpMin= 1.22D-01 ExpMax= 1.30D+01 ExpMxC= 1.30D+01 IAcc=1 IRadAn=         1 AccDes= 0.00D+00
 HarFok:  IExCor=  408 AccDes= 0.00D+00 IRadAn=         1 IDoV= 1
 ScaDFX=  1.000000  1.000000  1.000000  1.000000
 FoFCou: FMM=F IPFlag=           0 FMFlag=      100000 FMFlg1=           0
         NFxFlg=           0 DoJE=T BraDBF=F KetDBF=T FulRan=T
         Omega=  0.000000  0.000000  1.000000  0.000000  0.000000 ICntrl=     500 IOpCl=  0
         NMat0=    1 NMatS0=    1 NMatT0=    0 NMatD0=    1 NMtDS0=    0 NMtDT0=    0
         I1Cent=           4 NGrid=           0.
 Petite list used in FoFCou.
 Harris En= -1.18520941151205    
 Initial guess orbital symmetries:
       Occupied  (SGG)
       Virtual   (SGU) (SGG) (SGU) (PIU) (PIU) (SGG) (PIG) (PIG)
                 (SGU)
 The electronic state of the initial guess is 1-SGG.
 Leave Link  401 at Sat Aug 17 22:38:10 2024, MaxMem=   13107200 cpu:       0.2
 (Enter /programs/64bit/g09/g09-gfortran/bin/l502.exe)
 Closed shell SCF:
 Requested convergence on RMS density matrix=1.00D-08 within 128 cycles.
 Requested convergence on MAX density matrix=1.00D-06.
 Requested convergence on             energy=1.00D-06.
 No special actions if energy rises.
 Using DIIS extrapolation, IDIIS=  1040.
 Integral symmetry usage will be decided dynamically.
        16322 words used for storage of precomputed grid.
 Keep R1 ints in memory in canonical form, NReq=895019.
 IEnd=       36115 IEndB=       36115 NGot=    13107200 MDV=    13086620
 LenX=    13086620 LenY=    13085738
 Symmetry not used in FoFDir.
 MinBra= 0 MaxBra= 1 Meth= 1.
 IRaf=       0 NMat=   1 IRICut=       1 DoRegI=T DoRafI=F ISym2E= 0 JSym2E=0.
 Integral accuracy reduced to 1.0D-05 until final iterations.

 Cycle   1  Pass 0  IDiag  1:
 E= -1.16986031269931    
 DIIS: error= 1.81D-02 at cycle   1 NSaved=   1.
 NSaved= 1 IEnMin= 1 EnMin= -1.16986031269931     IErMin= 1 ErrMin= 1.81D-02
 ErrMax= 1.81D-02 EMaxC= 1.00D-01 BMatC= 1.80D-03 BMatP= 1.80D-03
 IDIUse=3 WtCom= 8.19D-01 WtEn= 1.81D-01
 Coeff-Com:  0.100D+01
 Coeff-En:   0.100D+01
 Coeff:      0.100D+01
 Gap=     0.505 Goal=   None    Shift=    0.000
 GapD=    0.505 DampG=2.000 DampE=0.500 DampFc=1.0000 IDamp=-1.
 RMSDP=6.61D-03 MaxDP=2.71D-02              OVMax= 5.18D-02

 Cycle   2  Pass 0  IDiag  1:
 E= -1.17356426826043     Delta-E=       -0.003703955561 Rises=F Damp=F
 DIIS: error= 3.18D-03 at cycle   2 NSaved=   2.
 NSaved= 2 IEnMin= 2 EnMin= -1.17356426826043     IErMin= 2 ErrMin= 3.18D-03
 ErrMax= 3.18D-03 EMaxC= 1.00D-01 BMatC= 4.61D-05 BMatP= 1.80D-03
 IDIUse=3 WtCom= 9.68D-01 WtEn= 3.18D-02
 Coeff-Com:  0.136D+00 0.864D+00
 Coeff-En:   0.000D+00 0.100D+01
 Coeff:      0.132D+00 0.868D+00
 Gap=     0.514 Goal=   None    Shift=    0.000
 RMSDP=7.61D-04 MaxDP=3.04D-03 DE=-3.70D-03 OVMax= 6.36D-03

 Cycle   3  Pass 0  IDiag  1:
 E= -1.17364777701730     Delta-E=       -0.000083508757 Rises=F Damp=F
 DIIS: error= 3.06D-05 at cycle   3 NSaved=   3.
 NSaved= 3 IEnMin= 3 EnMin= -1.17364777701730     IErMin= 3 ErrMin= 3.06D-05
 ErrMax= 3.06D-05 EMaxC= 1.00D-01 BMatC= 5.21D-09 BMatP= 4.61D-05
 IDIUse=1 WtCom= 1.00D+00 WtEn= 0.00D+00
 Coeff-Com: -0.848D-02-0.546D-01 0.106D+01
 Coeff:     -0.848D-02-0.546D-01 0.106D+01
 Gap=     0.514 Goal=   None    Shift=    0.000
 RMSDP=7.40D-06 MaxDP=3.09D-05 DE=-8.35D-05 OVMax= 3.20D-05

 Initial convergence to 1.0D-05 achieved.  Increase integral accuracy.
 Cycle   4  Pass 1  IDiag  1:
 E= -1.17364468543191     Delta-E=        0.000003091585 Rises=F Damp=F
 DIIS: error= 1.19D-06 at cycle   1 NSaved=   1.
 NSaved= 1 IEnMin= 1 EnMin= -1.17364468543191     IErMin= 1 ErrMin= 1.19D-06
 ErrMax= 1.19D-06 EMaxC= 1.00D-01 BMatC= 5.94D-12 BMatP= 5.94D-12
 IDIUse=1 WtCom= 1.00D+00 WtEn= 0.00D+00
 Coeff-Com:  0.100D+01
 Coeff:      0.100D+01
 Gap=     0.514 Goal=   None    Shift=    0.000
 RMSDP=7.40D-06 MaxDP=3.09D-05 DE= 3.09D-06 OVMax= 2.20D-06

 Cycle   5  Pass 1  IDiag  1:
 E= -1.17364468544080     Delta-E=       -0.000000000009 Rises=F Damp=F
 DIIS: error= 1.37D-07 at cycle   2 NSaved=   2.
 NSaved= 2 IEnMin= 2 EnMin= -1.17364468544080     IErMin= 2 ErrMin= 1.37D-07
 ErrMax= 1.37D-07 EMaxC= 1.00D-01 BMatC= 9.88D-14 BMatP= 5.94D-12
 IDIUse=1 WtCom= 1.00D+00 WtEn= 0.00D+00
 Coeff-Com:  0.109D+00 0.891D+00
 Coeff:      0.109D+00 0.891D+00
 Gap=     0.514 Goal=   None    Shift=    0.000
 RMSDP=4.11D-08 MaxDP=1.68D-07 DE=-8.89D-12 OVMax= 3.31D-07

 Cycle   6  Pass 1  IDiag  1:
 E= -1.17364468544099     Delta-E=       -0.000000000000 Rises=F Damp=F
 DIIS: error= 5.86D-09 at cycle   3 NSaved=   3.
 NSaved= 3 IEnMin= 3 EnMin= -1.17364468544099     IErMin= 3 ErrMin= 5.86D-09
 ErrMax= 5.86D-09 EMaxC= 1.00D-01 BMatC= 1.44D-16 BMatP= 9.88D-14
 IDIUse=1 WtCom= 1.00D+00 WtEn= 0.00D+00
 Coeff-Com: -0.781D-02-0.239D-01 0.103D+01
 Coeff:     -0.781D-02-0.239D-01 0.103D+01
 Gap=     0.514 Goal=   None    Shift=    0.000
 RMSDP=7.29D-10 MaxDP=2.01D-09 DE=-1.99D-13 OVMax= 6.64D-09

 SCF Done:  E(RB3PW91) =  -1.17364468544     A.U. after    6 cycles
             Convg  =    0.7286D-09             -V/T =  2.0592
 KE= 1.108057618811D+00 PE=-3.613029489039D+00 EE= 6.162228488548D-01
 Leave Link  502 at Sat Aug 17 22:38:10 2024, MaxMem=   13107200 cpu:       0.2
 (Enter /programs/64bit/g09/g09-gfortran/bin/l601.exe)
 Copying SCF densities to generalized density rwf, IOpCl= 0 IROHF=0.

 **********************************************************************

            Population analysis using the SCF density.

 **********************************************************************

 Orbital symmetries:
       Occupied  (SGG)
       Virtual   (SGU) (SGG) (SGU) (PIU) (PIU) (SGG) (PIG) (PIG)
                 (SGU)
 The electronic state is 1-SGG.
 Alpha  occ. eigenvalues --   -0.42889
 Alpha virt. eigenvalues --    0.08525   0.34420   0.71651   1.04247   1.04247
 Alpha virt. eigenvalues --    1.68099   1.77333   1.77333   3.27390
     Molecular Orbital Coefficients:
                           1         2         3         4         5
                       (SGG)--O  (SGU)--V  (SGG)--V  (SGU)--V  (PIU)--V
     Eigenvalues --    -0.42889   0.08525   0.34420   0.71651   1.04247
   1 1   H  1S          0.41030   0.22448  -0.69211  -0.80442   0.00000
   2        2S          0.16826   1.80356   0.72449   1.78725   0.00000
   3        3PX         0.00000   0.00000   0.00000   0.00000   0.00000
   4        3PY         0.00000   0.00000   0.00000   0.00000   0.57904
   5        3PZ        -0.01831   0.01883   0.02035  -0.36386   0.00000
   6 2   H  1S          0.41030  -0.22448  -0.69211   0.80442   0.00000
   7        2S          0.16826  -1.80356   0.72449  -1.78725   0.00000
   8        3PX         0.00000   0.00000   0.00000   0.00000   0.00000
   9        3PY         0.00000   0.00000   0.00000   0.00000   0.57904
  10        3PZ         0.01831   0.01883  -0.02035  -0.36386   0.00000
                           6         7         8         9        10
                       (PIU)--V  (SGG)--V  (PIG)--V  (PIG)--V  (SGU)--V
     Eigenvalues --     1.04247   1.68099   1.77333   1.77333   3.27390
   1 1   H  1S          0.00000   0.45014   0.00000   0.00000   2.66820
   2        2S          0.00000  -0.23125   0.00000   0.00000   0.08722
   3        3PX         0.57904   0.00000   0.99135   0.00000   0.00000
   4        3PY         0.00000   0.00000   0.00000   0.99135   0.00000
   5        3PZ         0.00000   0.72682   0.00000   0.00000  -2.03555
   6 2   H  1S          0.00000   0.45014   0.00000   0.00000  -2.66820
   7        2S          0.00000  -0.23125   0.00000   0.00000  -0.08722
   8        3PX         0.57904   0.00000  -0.99135   0.00000   0.00000
   9        3PY         0.00000   0.00000   0.00000  -0.99135   0.00000
  10        3PZ         0.00000  -0.72682   0.00000   0.00000  -2.03555
     Density Matrix:
                           1         2         3         4         5
   1 1   H  1S          0.33669
   2        2S          0.13808   0.05662
   3        3PX        -0.00000  -0.00000   0.00000
   4        3PY        -0.00000  -0.00000   0.00000   0.00000
   5        3PZ        -0.01502  -0.00616   0.00000   0.00000   0.00067
   6 2   H  1S          0.33669   0.13808  -0.00000  -0.00000  -0.01502
   7        2S          0.13808   0.05662  -0.00000  -0.00000  -0.00616
   8        3PX         0.00000   0.00000  -0.00000  -0.00000  -0.00000
   9        3PY         0.00000   0.00000  -0.00000  -0.00000  -0.00000
  10        3PZ         0.01502   0.00616  -0.00000  -0.00000  -0.00067
                           6         7         8         9        10
   6 2   H  1S          0.33669
   7        2S          0.13808   0.05662
   8        3PX         0.00000   0.00000   0.00000
   9        3PY         0.00000   0.00000   0.00000   0.00000
  10        3PZ         0.01502   0.00616   0.00000   0.00000   0.00067
    Full Mulliken population analysis:
                           1         2         3         4         5
   1 1   H  1S          0.33669
   2        2S          0.09456   0.05662
   3        3PX         0.00000   0.00000   0.00000
   4        3PY         0.00000   0.00000   0.00000   0.00000
   5        3PZ         0.00000   0.00000   0.00000   0.00000   0.00067
   6 2   H  1S          0.19215   0.07808   0.00000   0.00000   0.00808
   7        2S          0.07808   0.05026   0.00000   0.00000   0.00101
   8        3PX         0.00000   0.00000  -0.00000   0.00000   0.00000
   9        3PY         0.00000   0.00000   0.00000  -0.00000   0.00000
  10        3PZ         0.00808   0.00101   0.00000   0.00000   0.00014
                           6         7         8         9        10
   6 2   H  1S          0.33669
   7        2S          0.09456   0.05662
   8        3PX         0.00000   0.00000   0.00000
   9        3PY         0.00000   0.00000   0.00000   0.00000
  10        3PZ         0.00000   0.00000   0.00000   0.00000   0.00067
     Gross orbital populations:
                           1
   1 1   H  1S          0.70956
   2        2S          0.28054
   3        3PX         0.00000
   4        3PY         0.00000
   5        3PZ         0.00990
   6 2   H  1S          0.70956
   7        2S          0.28054
   8        3PX         0.00000
   9        3PY         0.00000
  10        3PZ         0.00990
          Condensed to atoms (all electrons):
              1          2
     1  H    0.583105   0.416895
     2  H    0.416895   0.583105
 Mulliken atomic charges:
              1
     1  H    0.000000
     2  H    0.000000
 Sum of Mulliken atomic charges =   0.00000
 Mulliken charges with hydrogens summed into heavy atoms:
              1
 Sum of Mulliken charges with hydrogens summed into heavy atoms =   0.00000
 Electronic spatial extent (au):  <R**2>=              5.0140
 Charge=              0.0000 electrons
 Dipole moment (field-independent basis, Debye):
    X=              0.0000    Y=              0.0000    Z=              0.0000  Tot=              0.0000
 Quadrupole moment (field-independent basis, Debye-Ang):
   XX=             -1.9978   YY=             -1.9978   ZZ=             -1.4332
   XY=             -0.0000   XZ=             -0.0000   YZ=              0.0000
 Traceless Quadrupole moment (field-independent basis, Debye-Ang):
   XX=             -0.1882   YY=             -0.1882   ZZ=              0.3764
   XY=             -0.0000   XZ=             -0.0000   YZ=              0.0000
 Octapole moment (field-independent basis, Debye-Ang**2):
  XXX=             -0.0000  YYY=              0.0000  ZZZ=              0.0000  XYY=             -0.0000
  XXY=              0.0000  XXZ=              0.0000  XZZ=             -0.0000  YZZ=              0.0000
  YYZ=              0.0000  XYZ=              0.0000
 Hexadecapole moment (field-independent basis, Debye-Ang**3):
 XXXX=             -1.8415 YYYY=             -1.8415 ZZZZ=             -2.6706 XXXY=             -0.0000
 XXXZ=              0.0000 YYYX=             -0.0000 YYYZ=              0.0000 ZZZX=              0.0000
 ZZZY=              0.0000 XXYY=             -0.6138 XXZZ=             -0.7682 YYZZ=             -0.7682
 XXYZ=              0.0000 YYXZ=              0.0000 ZZXY=             -0.0000
 N-N= 7.151043359324D-01 E-N=-3.613029483758D+00  KE= 1.108057618811D+00
 Symmetry AG   KE= 1.108057618811D+00
 Symmetry B1G  KE= 0.000000000000D+00
 Symmetry B2G  KE= 3.143955217724D-34
 Symmetry B3G  KE= 3.143955217724D-34
 Symmetry AU   KE= 0.000000000000D+00
 Symmetry B1U  KE= 3.054387715460D-32
 Symmetry B2U  KE= 6.378085091750D-35
 Symmetry B3U  KE= 6.378085091750D-35
 Orbital energies and kinetic energies (alpha):
                                 1                 2
   1         (SGG)--O         -0.428889          0.554029
   2         (SGU)--V          0.085249          0.401989
   3         (SGG)--V          0.344196          0.877157
   4         (SGU)--V          0.716507          1.614881
   5         (PIU)--V          1.042469          1.647267
   6         (PIU)--V          1.042469          1.647267
   7         (SGG)--V          1.680985          2.348974
   8         (PIG)--V          1.773325          2.316470
   9         (PIG)--V          1.773325          2.316470
  10         (SGU)--V          3.273897          4.626298
 Total kinetic energy from orbitals= 1.108057618811D+00
 No NMR shielding tensors so no spin-rotation constants.
 Leave Link  601 at Sat Aug 17 22:38:10 2024, MaxMem=   13107200 cpu:       0.1
 (Enter /programs/64bit/g09/g09-gfortran/bin/l701.exe)
 Compute integral first derivatives.
 ... and contract with generalized density number  0.
 Leave Link  701 at Sat Aug 17 22:38:11 2024, MaxMem=   13107200 cpu:       0.1
 (Enter /programs/64bit/g09/g09-gfortran/bin/l702.exe)
 L702 exits ... SP integral derivatives will be done elsewhere.
 Leave Link  702 at Sat Aug 17 22:38:11 2024, MaxMem=   13107200 cpu:       0.0
 (Enter /programs/64bit/g09/g09-gfortran/bin/l703.exe)
 Compute integral first derivatives, UseDBF=F ICtDFT=           0.
 Integral derivatives from FoFDir, PRISM(SPDF).
 Calling FoFJK, ICntrl=      2127 FMM=F ISym2X=1 I1Cent= 0 IOpClX= 0 NMat=1 NMatS=1 NMatT=0.
 FoFCou: FMM=F IPFlag=           0 FMFlag=      100000 FMFlg1=         800
         NFxFlg=           0 DoJE=F BraDBF=F KetDBF=F FulRan=T
         Omega=  0.000000  0.000000  1.000000  0.000000  0.000000 ICntrl=    2127 IOpCl=  0
         NMat0=    1 NMatS0=    1 NMatT0=    0 NMatD0=    1 NMtDS0=    0 NMtDT0=    0
         I1Cent=           0 NGrid=           0.
 Petite list used in FoFCou.
 Leave Link  703 at Sat Aug 17 22:38:11 2024, MaxMem=   13107200 cpu:       0.1
 (Enter /programs/64bit/g09/g09-gfortran/bin/l716.exe)
 Dipole        = 4.93038066D-32 4.81482486D-35 0.00000000D+00
 ***** Axes restored to original set *****
 -------------------------------------------------------------------
 Center     Atomic                   Forces (Hartrees/Bohr)
 Number     Number              X              Y              Z
 -------------------------------------------------------------------
      1        1           0.000000000    0.000000000   -0.015296714
      2        1          -0.000000000   -0.000000000    0.015296714
 -------------------------------------------------------------------
 Cartesian Forces:  Max     0.015296714 RMS     0.008831562
 Leave Link  716 at Sat Aug 17 22:38:11 2024, MaxMem=   13107200 cpu:       0.0
 (Enter /programs/64bit/g09/g09-gfortran/bin/l103.exe)

 GradGradGradGradGradGradGradGradGradGradGradGradGradGradGradGradGradGrad
 Berny optimization.
 Internal  Forces:  Max     0.015296714 RMS     0.015296714
 Search for a local minimum.
 Step number   1 out of a maximum of   20
 All quantities printed in internal units (Hartrees-Bohrs-Radians)
 RMS Force = .15297D-01 SwitMx=.10000D-02 MixMth= 1
 Mixed Optimization -- RFO/linear search
 Second derivative matrix not updated -- first step.
 The second derivative matrix:
                          R1
           R1           0.39139
     Eigenvalues ---    0.39139
 RFO step:  Lambda=-5.96925368D-04 EMin= 3.91394209D-01
 Linear search not attempted -- first point.
 Iteration  1 RMS(Cart)=  0.02759351 RMS(Int)=  0.00000000
 Iteration  2 RMS(Cart)=  0.00000000 RMS(Int)=  0.00000000
 ClnCor:  largest displacement from symmetrization is 1.19D-18 for atom     1.
 Variable       Old X    -DE/DX   Delta X   Delta X   Delta X     New X
                                 (Linear)    (Quad)   (Total)
    R1        1.39840   0.01530   0.00000   0.03902   0.03902   1.43742
         Item               Value     Threshold  Converged?
 Maximum Force            0.015297     0.000450     NO 
 RMS     Force            0.015297     0.000300     NO 
 Maximum Displacement     0.019512     0.001800     NO 
 RMS     Displacement     0.027594     0.001200     NO 
 Predicted change in Energy=-2.989172D-04
 GradGradGradGradGradGradGradGradGradGradGradGradGradGradGradGradGradGrad

 Leave Link  103 at Sat Aug 17 22:38:11 2024, MaxMem=   13107200 cpu:       0.0
 (Enter /programs/64bit/g09/g09-gfortran/bin/l202.exe)
                          Input orientation:                          
 ---------------------------------------------------------------------
 Center     Atomic      Atomic             Coordinates (Angstroms)
 Number     Number       Type             X           Y           Z
 ---------------------------------------------------------------------
      1          1           0        0.000000    0.000000   -0.010325
      2          1           0        0.000000    0.000000    0.750325
 ---------------------------------------------------------------------
 Stoichiometry    H2
 Framework group  D*H[C*(H.H)]
 Deg. of freedom     1
 Full point group                 D*H     NOp   8
 Largest Abelian subgroup         D2H     NOp   8
 Largest concise Abelian subgroup C2      NOp   2
                         Standard orientation:                         
 ---------------------------------------------------------------------
 Center     Atomic      Atomic             Coordinates (Angstroms)
 Number     Number       Type             X           Y           Z
 ---------------------------------------------------------------------
      1          1           0        0.000000    0.000000    0.380325
      2          1           0        0.000000    0.000000   -0.380325
 ---------------------------------------------------------------------
 Rotational constants (GHZ):      0.0000000   1733.3734812   1733.3734812
 Leave Link  202 at Sat Aug 17 22:38:11 2024, MaxMem=   13107200 cpu:       0.0
 (Enter /programs/64bit/g09/g09-gfortran/bin/l301.exe)
 Standard basis: CC-pVDZ (5D, 7F)
 Ernie: Thresh=  0.10000D-02 Tol=  0.10000D-05 Strict=F.
 There are     3 symmetry adapted basis functions of AG  symmetry.
 There are     0 symmetry adapted basis functions of B1G symmetry.
 There are     1 symmetry adapted basis functions of B2G symmetry.
 There are     1 symmetry adapted basis functions of B3G symmetry.
 There are     0 symmetry adapted basis functions of AU  symmetry.
 There are     3 symmetry adapted basis functions of B1U symmetry.
 There are     1 symmetry adapted basis functions of B2U symmetry.
 There are     1 symmetry adapted basis functions of B3U symmetry.
 Integral buffers will be    131072 words long.
 Raffenetti 2 integral format.
 Two-electron integral symmetry is turned on.
    10 basis functions,    14 primitive gaussians,    10 cartesian basis functions
     1 alpha electrons        1 beta electrons
       nuclear repulsion energy         0.6956906729 Hartrees.
 IExCor=  408 DFT=T Ex+Corr=B3PW91 ExCW=0 ScaHFX=  0.200000
 ScaDFX=  0.800000  0.720000  1.000000  0.810000 ScalE2=  1.000000  1.000000
 IRadAn=      0 IRanWt=     -1 IRanGd=            0 ICorTp=0
 NAtoms=    2 NActive=    2 NUniq=    1 SFac= 3.00D+00 NAtFMM=   80 NAOKFM=F Big=F
 Leave Link  301 at Sat Aug 17 22:38:11 2024, MaxMem=   13107200 cpu:       0.1
 (Enter /programs/64bit/g09/g09-gfortran/bin/l302.exe)
 NPDir=0 NMtPBC=     1 NCelOv=     1 NCel=       1 NClECP=     1 NCelD=      1
         NCelK=      1 NCelE2=     1 NClLst=     1 CellRange=     0.0.
 One-electron integrals computed using PRISM.
 One-electron integral symmetry used in STVInt
 NBasis=    10 RedAO= T  NBF=     3     0     1     1     0     3     1     1
 NBsUse=    10 1.00D-06 NBFU=     3     0     1     1     0     3     1     1
 Precomputing XC quadrature grid using
 IXCGrd= 2 IRadAn=           0 IRanWt=          -1 IRanGd=           0 AccXCQ= 1.00D-10.
 NRdTot=     122 NPtTot=       15460 NUsed=       16353 NTot=       16385
 NSgBfM=    10    10    10    10    10 NAtAll=     2     2.
 Leave Link  302 at Sat Aug 17 22:38:12 2024, MaxMem=   13107200 cpu:       0.2
 (Enter /programs/64bit/g09/g09-gfortran/bin/l303.exe)
 DipDrv:  MaxL=1.
 Leave Link  303 at Sat Aug 17 22:38:12 2024, MaxMem=   13107200 cpu:       0.0
 (Enter /programs/64bit/g09/g09-gfortran/bin/l401.exe)
 Initial guess read from the read-write file.
 B after Tr=     0.000000    0.000000    0.000000
         Rot=    1.000000    0.000000    0.000000    0.000000 Ang=   0.00 deg.
 Guess basis will be translated and rotated to current coordinates.
 Initial guess orbital symmetries:
       Occupied  (SGG)
       Virtual   (SGU) (SGG) (SGU) (PIU) (PIU) (SGG) (PIG) (PIG)
                 (SGU)
 The electronic state of the initial guess is 1-SGG.
 Leave Link  401 at Sat Aug 17 22:38:12 2024, MaxMem=   13107200 cpu:       0.2
 (Enter /programs/64bit/g09/g09-gfortran/bin/l502.exe)
 Closed shell SCF:
 Requested convergence on RMS density matrix=1.00D-08 within 128 cycles.
 Requested convergence on MAX density matrix=1.00D-06.
 Requested convergence on             energy=1.00D-06.
 No special actions if energy rises.
 Using DIIS extrapolation, IDIIS=  1040.
 Integral symmetry usage will be decided dynamically.
        16322 words used for storage of precomputed grid.
 Keep R1 ints in memory in canonical form, NReq=895019.
 IEnd=       36115 IEndB=       36115 NGot=    13107200 MDV=    13086620
 LenX=    13086620 LenY=    13085738
 Symmetry not used in FoFDir.
 MinBra= 0 MaxBra= 1 Meth= 1.
 IRaf=       0 NMat=   1 IRICut=       1 DoRegI=T DoRafI=F ISym2E= 0 JSym2E=0.

 Cycle   1  Pass 1  IDiag  1:
 E= -1.17388726837150    
 DIIS: error= 1.97D-03 at cycle   1 NSaved=   1.
 NSaved= 1 IEnMin= 1 EnMin= -1.17388726837150     IErMin= 1 ErrMin= 1.97D-03
 ErrMax= 1.97D-03 EMaxC= 1.00D-01 BMatC= 2.36D-05 BMatP= 2.36D-05
 IDIUse=3 WtCom= 9.80D-01 WtEn= 1.97D-02
 Coeff-Com:  0.100D+01
 Coeff-En:   0.100D+01
 Coeff:      0.100D+01
 Gap=     0.507 Goal=   None    Shift=    0.000
 GapD=    0.507 DampG=2.000 DampE=1.000 DampFc=2.0000 IDamp=-1.
 RMSDP=7.59D-04 MaxDP=3.15D-03              OVMax= 5.97D-03

 Cycle   2  Pass 1  IDiag  1:
 E= -1.17393621632929     Delta-E=       -0.000048947958 Rises=F Damp=F
 DIIS: error= 3.69D-04 at cycle   2 NSaved=   2.
 NSaved= 2 IEnMin= 2 EnMin= -1.17393621632929     IErMin= 2 ErrMin= 3.69D-04
 ErrMax= 3.69D-04 EMaxC= 1.00D-01 BMatC= 6.21D-07 BMatP= 2.36D-05
 IDIUse=3 WtCom= 9.96D-01 WtEn= 3.69D-03
 Coeff-Com:  0.136D+00 0.864D+00
 Coeff-En:   0.000D+00 0.100D+01
 Coeff:      0.136D+00 0.864D+00
 Gap=     0.505 Goal=   None    Shift=    0.000
 RMSDP=8.68D-05 MaxDP=3.46D-04 DE=-4.89D-05 OVMax= 7.25D-04

 Cycle   3  Pass 1  IDiag  1:
 E= -1.17393732779575     Delta-E=       -0.000001111466 Rises=F Damp=F
 DIIS: error= 5.25D-06 at cycle   3 NSaved=   3.
 NSaved= 3 IEnMin= 3 EnMin= -1.17393732779575     IErMin= 3 ErrMin= 5.25D-06
 ErrMax= 5.25D-06 EMaxC= 1.00D-01 BMatC= 1.64D-10 BMatP= 6.21D-07
 IDIUse=1 WtCom= 1.00D+00 WtEn= 0.00D+00
 Coeff-Com: -0.774D-02-0.565D-01 0.106D+01
 Coeff:     -0.774D-02-0.565D-01 0.106D+01
 Gap=     0.505 Goal=   None    Shift=    0.000
 RMSDP=7.02D-07 MaxDP=2.09D-06 DE=-1.11D-06 OVMax= 3.61D-07

 Cycle   4  Pass 1  IDiag  1:
 E= -1.17393732795734     Delta-E=       -0.000000000162 Rises=F Damp=F
 DIIS: error= 3.47D-09 at cycle   4 NSaved=   4.
 NSaved= 4 IEnMin= 4 EnMin= -1.17393732795734     IErMin= 4 ErrMin= 3.47D-09
 ErrMax= 3.47D-09 EMaxC= 1.00D-01 BMatC= 9.30D-17 BMatP= 1.64D-10
 IDIUse=1 WtCom= 1.00D+00 WtEn= 0.00D+00
 Coeff-Com:  0.443D-06-0.122D-04 0.397D-03 0.100D+01
 Coeff:      0.443D-06-0.122D-04 0.397D-03 0.100D+01
 Gap=     0.505 Goal=   None    Shift=    0.000
 RMSDP=1.47D-09 MaxDP=6.25D-09 DE=-1.62D-10 OVMax= 1.10D-08

 SCF Done:  E(RB3PW91) =  -1.17393732796     A.U. after    4 cycles
             Convg  =    0.1473D-08             -V/T =  2.0760
 KE= 1.091040204265D+00 PE=-3.569617095441D+00 EE= 6.089488903444D-01
 Leave Link  502 at Sat Aug 17 22:38:12 2024, MaxMem=   13107200 cpu:       0.2
 (Enter /programs/64bit/g09/g09-gfortran/bin/l701.exe)
 Compute integral first derivatives.
 ... and contract with generalized density number  0.
 Leave Link  701 at Sat Aug 17 22:38:12 2024, MaxMem=   13107200 cpu:       0.1
 (Enter /programs/64bit/g09/g09-gfortran/bin/l702.exe)
 L702 exits ... SP integral derivatives will be done elsewhere.
 Leave Link  702 at Sat Aug 17 22:38:12 2024, MaxMem=   13107200 cpu:       0.0
 (Enter /programs/64bit/g09/g09-gfortran/bin/l703.exe)
 Compute integral first derivatives, UseDBF=F ICtDFT=           0.
 Integral derivatives from FoFDir, PRISM(SPDF).
 Calling FoFJK, ICntrl=      2127 FMM=F ISym2X=1 I1Cent= 0 IOpClX= 0 NMat=1 NMatS=1 NMatT=0.
 FoFCou: FMM=F IPFlag=           0 FMFlag=      100000 FMFlg1=         800
         NFxFlg=           0 DoJE=F BraDBF=F KetDBF=F FulRan=T
         Omega=  0.000000  0.000000  1.000000  0.000000  0.000000 ICntrl=    2127 IOpCl=  0
         NMat0=    1 NMatS0=    1 NMatT0=    0 NMatD0=    1 NMtDS0=    0 NMtDT0=    0
         I1Cent=           0 NGrid=           0.
 Petite list used in FoFCou.
 Leave Link  703 at Sat Aug 17 22:38:13 2024, MaxMem=   13107200 cpu:       0.1
 (Enter /programs/64bit/g09/g09-gfortran/bin/l716.exe)
 Dipole        =-7.39557099D-32 4.81482486D-35-1.11022302D-16
 ***** Axes restored to original set *****
 -------------------------------------------------------------------
 Center     Atomic                   Forces (Hartrees/Bohr)
 Number     Number              X              Y              Z
 -------------------------------------------------------------------
      1        1           0.000000000    0.000000000   -0.000028819
      2        1          -0.000000000   -0.000000000    0.000028819
 -------------------------------------------------------------------
 Cartesian Forces:  Max     0.000028819 RMS     0.000016638
 Leave Link  716 at Sat Aug 17 22:38:13 2024, MaxMem=   13107200 cpu:       0.0
 (Enter /programs/64bit/g09/g09-gfortran/bin/l103.exe)

 GradGradGradGradGradGradGradGradGradGradGradGradGradGradGradGradGradGrad
 Berny optimization.
 Using GEDIIS/GDIIS optimizer.
 Internal  Forces:  Max     0.000028819 RMS     0.000028819
 Search for a local minimum.
 Step number   2 out of a maximum of   20
 All quantities printed in internal units (Hartrees-Bohrs-Radians)
 RMS Force = .28819D-04 SwitMx=.10000D-02 MixMth= 2
 Mixed Optimization -- En-DIIS/RFO-DIIS
 Update second derivatives using D2CorX and points    1    2
 DE= -2.93D-04 DEPred=-2.99D-04 R= 9.79D-01
 SS=  1.41D+00  RLast= 3.90D-02 DXNew= 5.0454D-01 1.1707D-01
 Trust test= 9.79D-01 RLast= 3.90D-02 DXMaxT set to 3.00D-01
 The second derivative matrix:
                          R1
           R1           0.39125
 Use linear search instead of GDIIS.
     Eigenvalues ---    0.39125
 RFO step:  Lambda= 0.00000000D+00 EMin= 3.91252636D-01
 Quartic linear search produced a step of  0.00202.
 Iteration  1 RMS(Cart)=  0.00005563 RMS(Int)=  0.00000000
 Iteration  2 RMS(Cart)=  0.00000000 RMS(Int)=  0.00000000
 ClnCor:  largest displacement from symmetrization is 2.41D-21 for atom     2.
 Variable       Old X    -DE/DX   Delta X   Delta X   Delta X     New X
                                 (Linear)    (Quad)   (Total)
    R1        1.43742   0.00003   0.00008   0.00000   0.00008   1.43750
         Item               Value     Threshold  Converged?
 Maximum Force            0.000029     0.000450     YES
 RMS     Force            0.000029     0.000300     YES
 Maximum Displacement     0.000039     0.001800     YES
 RMS     Displacement     0.000056     0.001200     YES
 Predicted change in Energy=-1.056429D-09
 Optimization completed.
    -- Stationary point found.
                           ----------------------------
                           !   Optimized Parameters   !
                           ! (Angstroms and Degrees)  !
 --------------------------                            --------------------------
 ! Name  Definition              Value          Derivative Info.                !
 --------------------------------------------------------------------------------
 ! R1    R(1,2)                  0.7607         -DE/DX =    0.0                 !
 --------------------------------------------------------------------------------
 GradGradGradGradGradGradGradGradGradGradGradGradGradGradGradGradGradGrad

 Largest change from initial coordinates is atom    1       0.010 Angstoms.
 Leave Link  103 at Sat Aug 17 22:38:13 2024, MaxMem=   13107200 cpu:       0.0
 (Enter /programs/64bit/g09/g09-gfortran/bin/l202.exe)
                          Input orientation:                          
 ---------------------------------------------------------------------
 Center     Atomic      Atomic             Coordinates (Angstroms)
 Number     Number       Type             X           Y           Z
 ---------------------------------------------------------------------
      1          1           0        0.000000    0.000000   -0.010325
      2          1           0        0.000000    0.000000    0.750325
 ---------------------------------------------------------------------
 Stoichiometry    H2
 Framework group  D*H[C*(H.H)]
 Deg. of freedom     1
 Full point group                 D*H     NOp   8
 Largest Abelian subgroup         D2H     NOp   8
 Largest concise Abelian subgroup C2      NOp   2
                         Standard orientation:                         
 ---------------------------------------------------------------------
 Center     Atomic      Atomic             Coordinates (Angstroms)
 Number     Number       Type             X           Y           Z
 ---------------------------------------------------------------------
      1          1           0        0.000000    0.000000    0.380325
      2          1           0        0.000000    0.000000   -0.380325
 ---------------------------------------------------------------------
 Rotational constants (GHZ):      0.0000000   1733.3734812   1733.3734812
 Leave Link  202 at Sat Aug 17 22:38:13 2024, MaxMem=   13107200 cpu:       0.0
 (Enter /programs/64bit/g09/g09-gfortran/bin/l601.exe)
 Copying SCF densities to generalized density rwf, IOpCl= 0 IROHF=0.

 **********************************************************************

            Population analysis using the SCF density.

 **********************************************************************

 Orbital symmetries:
       Occupied  (SGG)
       Virtual   (SGU) (SGG) (SGU) (PIU) (PIU) (SGG) (PIG) (PIG)
                 (SGU)
 The electronic state is 1-SGG.
 Alpha  occ. eigenvalues --   -0.42480
 Alpha virt. eigenvalues --    0.08009   0.34802   0.70342   1.04116   1.04116
 Alpha virt. eigenvalues --    1.66098   1.75968   1.75968   3.15920
     Molecular Orbital Coefficients:
                           1         2         3         4         5
                       (SGG)--O  (SGU)--V  (SGG)--V  (SGU)--V  (PIU)--V
     Eigenvalues --    -0.42480   0.08009   0.34802   0.70342   1.04116
   1 1   H  1S          0.40846   0.23188  -0.69850  -0.82591   0.00000
   2        2S          0.17260   1.74123   0.72540   1.77102   0.00000
   3        3PX         0.00000   0.00000   0.00000   0.00000   0.00000
   4        3PY         0.00000   0.00000   0.00000   0.00000   0.58284
   5        3PZ        -0.01787   0.01866   0.02370  -0.34621   0.00000
   6 2   H  1S          0.40846  -0.23188  -0.69850   0.82591   0.00000
   7        2S          0.17260  -1.74123   0.72540  -1.77102   0.00000
   8        3PX         0.00000   0.00000   0.00000   0.00000   0.00000
   9        3PY         0.00000   0.00000   0.00000   0.00000   0.58284
  10        3PZ         0.01787   0.01866  -0.02370  -0.34621   0.00000
                           6         7         8         9        10
                       (PIU)--V  (SGG)--V  (PIG)--V  (PIG)--V  (SGU)--V
     Eigenvalues --     1.04116   1.66098   1.75968   1.75968   3.15920
   1 1   H  1S          0.00000   0.44631   0.00000   0.00000   2.46339
   2        2S          0.00000  -0.22938   0.00000   0.00000   0.12454
   3        3PX         0.58284   0.00000   0.97300   0.00000   0.00000
   4        3PY         0.00000   0.00000   0.00000   0.97300   0.00000
   5        3PZ         0.00000   0.71419   0.00000   0.00000  -1.97807
   6 2   H  1S          0.00000   0.44631   0.00000   0.00000  -2.46339
   7        2S          0.00000  -0.22938   0.00000   0.00000  -0.12454
   8        3PX         0.58284   0.00000  -0.97300   0.00000   0.00000
   9        3PY         0.00000   0.00000   0.00000  -0.97300   0.00000
  10        3PZ         0.00000  -0.71419   0.00000   0.00000  -1.97807
     Density Matrix:
                           1         2         3         4         5
   1 1   H  1S          0.33369
   2        2S          0.14100   0.05958
   3        3PX        -0.00000  -0.00000   0.00000
   4        3PY        -0.00000  -0.00000   0.00000   0.00000
   5        3PZ        -0.01460  -0.00617   0.00000   0.00000   0.00064
   6 2   H  1S          0.33369   0.14100  -0.00000  -0.00000  -0.01460
   7        2S          0.14100   0.05958  -0.00000  -0.00000  -0.00617
   8        3PX         0.00000   0.00000  -0.00000  -0.00000  -0.00000
   9        3PY         0.00000   0.00000  -0.00000  -0.00000  -0.00000
  10        3PZ         0.01460   0.00617  -0.00000  -0.00000  -0.00064
                           6         7         8         9        10
   6 2   H  1S          0.33369
   7        2S          0.14100   0.05958
   8        3PX         0.00000   0.00000   0.00000
   9        3PY         0.00000   0.00000   0.00000   0.00000
  10        3PZ         0.01460   0.00617   0.00000   0.00000   0.00064
    Full Mulliken population analysis:
                           1         2         3         4         5
   1 1   H  1S          0.33369
   2        2S          0.09657   0.05958
   3        3PX         0.00000   0.00000   0.00000
   4        3PY         0.00000   0.00000   0.00000   0.00000
   5        3PZ         0.00000   0.00000   0.00000   0.00000   0.00064
   6 2   H  1S          0.18490   0.07888   0.00000   0.00000   0.00777
   7        2S          0.07888   0.05253   0.00000   0.00000   0.00103
   8        3PX         0.00000   0.00000  -0.00000   0.00000   0.00000
   9        3PY         0.00000   0.00000   0.00000  -0.00000   0.00000
  10        3PZ         0.00777   0.00103   0.00000   0.00000   0.00015
                           6         7         8         9        10
   6 2   H  1S          0.33369
   7        2S          0.09657   0.05958
   8        3PX         0.00000   0.00000   0.00000
   9        3PY         0.00000   0.00000   0.00000   0.00000
  10        3PZ         0.00000   0.00000   0.00000   0.00000   0.00064
     Gross orbital populations:
                           1
   1 1   H  1S          0.70181
   2        2S          0.28859
   3        3PX         0.00000
   4        3PY         0.00000
   5        3PZ         0.00959
   6 2   H  1S          0.70181
   7        2S          0.28859
   8        3PX         0.00000
   9        3PY         0.00000
  10        3PZ         0.00959
          Condensed to atoms (all electrons):
              1          2
     1  H    0.587046   0.412954
     2  H    0.412954   0.587046
 Mulliken atomic charges:
              1
     1  H   -0.000000
     2  H   -0.000000
 Sum of Mulliken atomic charges =  -0.00000
 Mulliken charges with hydrogens summed into heavy atoms:
              1
 Sum of Mulliken charges with hydrogens summed into heavy atoms =  -0.00000
 Electronic spatial extent (au):  <R**2>=              5.1175
 Charge=             -0.0000 electrons
 Dipole moment (field-independent basis, Debye):
    X=             -0.0000    Y=              0.0000    Z=             -0.0000  Tot=              0.0000
 Quadrupole moment (field-independent basis, Debye-Ang):
   XX=             -2.0264   YY=             -2.0264   ZZ=             -1.4409
   XY=             -0.0000   XZ=             -0.0000   YZ=              0.0000
 Traceless Quadrupole moment (field-independent basis, Debye-Ang):
   XX=             -0.1952   YY=             -0.1952   ZZ=              0.3904
   XY=             -0.0000   XZ=             -0.0000   YZ=              0.0000
 Octapole moment (field-independent basis, Debye-Ang**2):
  XXX=             -0.0000  YYY=              0.0000  ZZZ=              0.0000  XYY=             -0.0000
  XXY=              0.0000  XXZ=              0.0000  XZZ=             -0.0000  YZZ=              0.0000
  YYZ=              0.0000  XYZ=              0.0000
 Hexadecapole moment (field-independent basis, Debye-Ang**3):
 XXXX=             -1.8948 YYYY=             -1.8948 ZZZZ=             -2.7910 XXXY=             -0.0000
 XXXZ=              0.0000 YYYX=             -0.0000 YYYZ=              0.0000 ZZZX=              0.0000
 ZZZY=              0.0000 XXYY=             -0.6316 XXZZ=             -0.7987 YYZZ=             -0.7987
 XXYZ=              0.0000 YYXZ=              0.0000 ZZXY=             -0.0000
 N-N= 6.956906728736D-01 E-N=-3.569617102110D+00  KE= 1.091040204265D+00
 Symmetry AG   KE= 1.091040204265D+00
 Symmetry B1G  KE= 0.000000000000D+00
 Symmetry B2G  KE= 2.971904282944D-34
 Symmetry B3G  KE= 2.971904282944D-34
 Symmetry AU   KE= 0.000000000000D+00
 Symmetry B1U  KE= 5.925288062616D-33
 Symmetry B2U  KE= 6.342081398890D-35
 Symmetry B3U  KE= 6.342081398890D-35
 Orbital energies and kinetic energies (alpha):
                                 1                 2
   1         (SGG)--O         -0.424801          0.545520
   2         (SGU)--V          0.080086          0.407929
   3         (SGG)--V          0.348020          0.884785
   4         (SGU)--V          0.703415          1.603425
   5         (PIU)--V          1.041162          1.642452
   6         (PIU)--V          1.041162          1.642452
   7         (SGG)--V          1.660982          2.331531
   8         (PIG)--V          1.759684          2.305348
   9         (PIG)--V          1.759684          2.305348
  10         (SGU)--V          3.159195          4.443379
 Total kinetic energy from orbitals= 1.091040204265D+00
 No NMR shielding tensors so no spin-rotation constants.
 Leave Link  601 at Sat Aug 17 22:38:13 2024, MaxMem=   13107200 cpu:       0.1
 (Enter /programs/64bit/g09/g09-gfortran/bin/l9999.exe)
 B after Tr=     0.000000    0.000000    0.699199
         Rot=    0.000000   -0.000000    1.000000   -0.000000 Ang= 180.00 deg.
 Final structure in terms of initial Z-matrix:
 H
 H,1,d
      Variables:
 d=0.76065014
 1\1\GINC-MOLMOD\FOpt\RB3PW91\CC-pVDZ\H2\OSPITE\17-Aug-2024\0\\#p b3pw9
 1/cc-pVDZ opt freq pop=full gfinput\\hydogen (molecule) with cc-pVDZ b
 asis set\\0,1\H,0.,0.,-0.0103250706\H,0.,0.,0.7503250706\\Version=EM64
 L-G09RevA.02\State=1-SGG\HF=-1.1739373\RMSD=1.473e-09\RMSF=1.664e-05\D
 ipole=0.,0.,0.\Quadrupole=-0.1451161,-0.1451161,0.2902321,0.,0.,0.\PG=
 D*H [C*(H1.H1)]\\@


 TOM, TOM, THE BURGLAR'S SON
 STOLE A MACHINE AND AWAY HE RUN
 THE JOB WAS NEAT, BUT TOM GOT BEAT
 BY THE TIME HE GOT HOME IT WAS OBSOLETE.
 Leave Link 9999 at Sat Aug 17 22:38:13 2024, MaxMem=   13107200 cpu:       0.0
 Job cpu time:  0 days  0 hours  0 minutes  3.0 seconds.
 File lengths (MBytes):  RWF=      5 Int=      0 D2E=      0 Chk=      1 Scr=      1
 Normal termination of Gaussian 09 at Sat Aug 17 22:38:13 2024.
 (Enter /programs/64bit/g09/g09-gfortran/bin/l1.exe)
 Link1:  Proceeding to internal job step number  2.
 --------------------------------------------------------------------
 #P Geom=AllCheck Guess=TCheck SCRF=Check GenChk RB3PW91/CC-pVDZ Freq
 --------------------------------------------------------------------
 1/10=4,29=7,30=1,38=1,40=1/1,3;
 2/12=2,40=1/2;
 3/5=16,11=2,14=-4,16=1,24=10,25=1,30=1,70=2,71=2,74=-6,116=1/1,2,3;
 4/5=101/1;
 5/5=2,98=1/2;
 8/6=4,10=90,11=11/1;
 11/6=1,8=1,9=11,15=111,16=1/1,2,10;
 10/6=1/2;
 6/7=3,18=1,28=1/1;
 7/8=1,10=1,25=1/1,2,3,16;
 1/10=4,30=1/3;
 99//99;
 Leave Link    1 at Sat Aug 17 22:38:13 2024, MaxMem=   13107200 cpu:       0.1
 (Enter /programs/64bit/g09/g09-gfortran/bin/l101.exe)
 -----------------------------------------
 hydogen (molecule) with cc-pVDZ basis set
 -----------------------------------------
 Redundant internal coordinates taken from checkpoint file:
 /home/ospite/Desktop/MMfP/Project6/H2/g09/DFT/B3PW91/Gau-15149.chk
 Charge =  0 Multiplicity = 1
 H,0,0.,0.,-0.0103250706
 H,0,0.,0.,0.7503250706
 Recover connectivity data from disk.
                    Isotopes and Nuclear Properties:
 (Nuclear quadrupole moments (NQMom) in fm**2, nuclear magnetic moments (NMagM)
  in nuclear magnetons)

  Atom         1           2
 IAtWgt=           1           1
 AtmWgt=   1.0078250   1.0078250
 NucSpn=           1           1
 AtZEff=  -1.0000000  -1.0000000
 NQMom=    0.0000000   0.0000000
 NMagM=    2.7928460   2.7928460
 Leave Link  101 at Sat Aug 17 22:38:14 2024, MaxMem=   13107200 cpu:       0.1
 (Enter /programs/64bit/g09/g09-gfortran/bin/l103.exe)

 GradGradGradGradGradGradGradGradGradGradGradGradGradGradGradGradGradGrad
 Berny optimization.
 Initialization pass.
                           ----------------------------
                           !    Initial Parameters    !
                           ! (Angstroms and Degrees)  !
 --------------------------                            --------------------------
 ! Name  Definition              Value          Derivative Info.                !
 --------------------------------------------------------------------------------
 ! R1    R(1,2)                  0.7607         calculate D2E/DX2 analytically  !
 --------------------------------------------------------------------------------
 Trust Radius=3.00D-01 FncErr=1.00D-07 GrdErr=1.00D-07
 Number of steps in this run=   2 maximum allowed number of steps=   2.
 GradGradGradGradGradGradGradGradGradGradGradGradGradGradGradGradGradGrad

 Leave Link  103 at Sat Aug 17 22:38:14 2024, MaxMem=   13107200 cpu:       0.0
 (Enter /programs/64bit/g09/g09-gfortran/bin/l202.exe)
                          Input orientation:                          
 ---------------------------------------------------------------------
 Center     Atomic      Atomic             Coordinates (Angstroms)
 Number     Number       Type             X           Y           Z
 ---------------------------------------------------------------------
      1          1           0        0.000000    0.000000   -0.010325
      2          1           0        0.000000    0.000000    0.750325
 ---------------------------------------------------------------------
 Stoichiometry    H2
 Framework group  D*H[C*(H.H)]
 Deg. of freedom     1
 Full point group                 D*H     NOp   8
 Largest Abelian subgroup         D2H     NOp   8
 Largest concise Abelian subgroup C2      NOp   2
                         Standard orientation:                         
 ---------------------------------------------------------------------
 Center     Atomic      Atomic             Coordinates (Angstroms)
 Number     Number       Type             X           Y           Z
 ---------------------------------------------------------------------
      1          1           0        0.000000    0.000000    0.380325
      2          1           0        0.000000    0.000000   -0.380325
 ---------------------------------------------------------------------
 Rotational constants (GHZ):      0.0000000   1733.3734812   1733.3734812
 Leave Link  202 at Sat Aug 17 22:38:14 2024, MaxMem=   13107200 cpu:       0.0
 (Enter /programs/64bit/g09/g09-gfortran/bin/l301.exe)
 Standard basis: CC-pVDZ (5D, 7F)
 Ernie: Thresh=  0.10000D-02 Tol=  0.10000D-05 Strict=F.
 AO basis set in the form of general basis input (Overlap normalization):
      1 0
 S   3 1.00       0.000000000000
      0.1301000000D+02  0.3349872639D-01
      0.1962000000D+01  0.2348008012D+00
      0.4446000000D+00  0.8136829579D+00
 S   1 1.00       0.000000000000
      0.1220000000D+00  0.1000000000D+01
 P   1 1.00       0.000000000000
      0.7270000000D+00  0.1000000000D+01
 ****
      2 0
 S   3 1.00       0.000000000000
      0.1301000000D+02  0.3349872639D-01
      0.1962000000D+01  0.2348008012D+00
      0.4446000000D+00  0.8136829579D+00
 S   1 1.00       0.000000000000
      0.1220000000D+00  0.1000000000D+01
 P   1 1.00       0.000000000000
      0.7270000000D+00  0.1000000000D+01
 ****

 There are     3 symmetry adapted basis functions of AG  symmetry.
 There are     0 symmetry adapted basis functions of B1G symmetry.
 There are     1 symmetry adapted basis functions of B2G symmetry.
 There are     1 symmetry adapted basis functions of B3G symmetry.
 There are     0 symmetry adapted basis functions of AU  symmetry.
 There are     3 symmetry adapted basis functions of B1U symmetry.
 There are     1 symmetry adapted basis functions of B2U symmetry.
 There are     1 symmetry adapted basis functions of B3U symmetry.
 Integral buffers will be    131072 words long.
 Raffenetti 2 integral format.
 Two-electron integral symmetry is turned on.
    10 basis functions,    14 primitive gaussians,    10 cartesian basis functions
     1 alpha electrons        1 beta electrons
       nuclear repulsion energy         0.6956906729 Hartrees.
 IExCor=  408 DFT=T Ex+Corr=B3PW91 ExCW=0 ScaHFX=  0.200000
 ScaDFX=  0.800000  0.720000  1.000000  0.810000 ScalE2=  1.000000  1.000000
 IRadAn=      0 IRanWt=     -1 IRanGd=            0 ICorTp=0
 NAtoms=    2 NActive=    2 NUniq=    1 SFac= 3.00D+00 NAtFMM=   80 NAOKFM=F Big=F
 Leave Link  301 at Sat Aug 17 22:38:14 2024, MaxMem=   13107200 cpu:       0.1
 (Enter /programs/64bit/g09/g09-gfortran/bin/l302.exe)
 NPDir=0 NMtPBC=     1 NCelOv=     1 NCel=       1 NClECP=     1 NCelD=      1
         NCelK=      1 NCelE2=     1 NClLst=     1 CellRange=     0.0.
 One-electron integrals computed using PRISM.
 One-electron integral symmetry used in STVInt
 NBasis=    10 RedAO= T  NBF=     3     0     1     1     0     3     1     1
 NBsUse=    10 1.00D-06 NBFU=     3     0     1     1     0     3     1     1
 Precomputing XC quadrature grid using
 IXCGrd= 2 IRadAn=           0 IRanWt=          -1 IRanGd=           0 AccXCQ= 1.00D-10.
 NRdTot=     122 NPtTot=       15460 NUsed=       16353 NTot=       16385
 NSgBfM=    10    10    10    10    10 NAtAll=     2     2.
 Leave Link  302 at Sat Aug 17 22:38:14 2024, MaxMem=   13107200 cpu:       0.2
 (Enter /programs/64bit/g09/g09-gfortran/bin/l303.exe)
 DipDrv:  MaxL=1.
 Leave Link  303 at Sat Aug 17 22:38:14 2024, MaxMem=   13107200 cpu:       0.0
 (Enter /programs/64bit/g09/g09-gfortran/bin/l401.exe)
 Initial guess read from the checkpoint file:  /home/ospite/Desktop/MMfP/Project6
 /H2/g09/DFT/B3PW91/Gau-15149.chk
 B after Tr=     0.000000    0.000000    0.000000
         Rot=    1.000000    0.000000    0.000000    0.000000 Ang=   0.00 deg.
 Guess basis will be translated and rotated to current coordinates.
 Initial guess orbital symmetries:
       Occupied  (SGG)
       Virtual   (SGU) (SGG) (SGU) (PIU) (PIU) (SGG) (PIG) (PIG)
                 (SGU)
 The electronic state of the initial guess is 1-SGG.
 Leave Link  401 at Sat Aug 17 22:38:14 2024, MaxMem=   13107200 cpu:       0.2
 (Enter /programs/64bit/g09/g09-gfortran/bin/l502.exe)
 Closed shell SCF:
 Requested convergence on RMS density matrix=1.00D-08 within 128 cycles.
 Requested convergence on MAX density matrix=1.00D-06.
 Requested convergence on             energy=1.00D-06.
 No special actions if energy rises.
 Using DIIS extrapolation, IDIIS=  1040.
 Integral symmetry usage will be decided dynamically.
        16322 words used for storage of precomputed grid.
 Keep R1 ints in memory in canonical form, NReq=895019.
 IEnd=       36115 IEndB=       36115 NGot=    13107200 MDV=    13086620
 LenX=    13086620 LenY=    13085738
 Symmetry not used in FoFDir.
 MinBra= 0 MaxBra= 1 Meth= 1.
 IRaf=       0 NMat=   1 IRICut=       1 DoRegI=T DoRafI=F ISym2E= 0 JSym2E=0.

 Cycle   1  Pass 1  IDiag  1:
 E= -1.17393732795734    
 DIIS: error= 1.62D-13 at cycle   1 NSaved=   1.
 NSaved= 1 IEnMin= 1 EnMin= -1.17393732795734     IErMin= 1 ErrMin= 1.62D-13
 ErrMax= 1.62D-13 EMaxC= 1.00D-01 BMatC= 1.64D-25 BMatP= 1.64D-25
 IDIUse=1 WtCom= 1.00D+00 WtEn= 0.00D+00
 Coeff-Com:  0.100D+01
 Coeff:      0.100D+01
 Gap=     0.505 Goal=   None    Shift=    0.000
 RMSDP=6.36D-14 MaxDP=2.65D-13              OVMax= 5.00D-13

 SCF Done:  E(RB3PW91) =  -1.17393732796     A.U. after    1 cycles
             Convg  =    0.6364D-13             -V/T =  2.0760
 KE= 1.091040204264D+00 PE=-3.569617102109D+00 EE= 6.089488970137D-01
 Leave Link  502 at Sat Aug 17 22:38:15 2024, MaxMem=   13107200 cpu:       0.1
 (Enter /programs/64bit/g09/g09-gfortran/bin/l801.exe)
 Range of M.O.s used for correlation:     1    10
 NBasis=    10 NAE=     1 NBE=     1 NFC=     0 NFV=     0
 NROrb=     10 NOA=     1 NOB=     1 NVA=     9 NVB=     9
 Leave Link  801 at Sat Aug 17 22:38:15 2024, MaxMem=   13107200 cpu:       0.0
 (Enter /programs/64bit/g09/g09-gfortran/bin/l1101.exe)
 Using compressed storage, NAtomX=     2.
 Will process   3 centers per pass.
 Leave Link 1101 at Sat Aug 17 22:38:15 2024, MaxMem=   13107200 cpu:       0.1
 (Enter /programs/64bit/g09/g09-gfortran/bin/l1102.exe)
 Symmetrizing basis deriv contribution to polar:
 IMax=3 JMax=2 DiffMx= 0.00D+00
 Leave Link 1102 at Sat Aug 17 22:38:15 2024, MaxMem=   13107200 cpu:       0.0
 (Enter /programs/64bit/g09/g09-gfortran/bin/l1110.exe)
 Forming Gx(P) for the SCF density, NAtomX=     2.
 Integral derivatives from FoFDir/FoFCou, PRISM(SPDF).
 Do as many integral derivatives as possible in FoFDir.
 G2DrvN: MDV=      13107080.
 G2DrvN: will do     3 centers at a time, making    1 passes doing MaxLOS=1.
 Calling FoFCou, ICntrl=  3107 FMM=F I1Cent=   0 AccDes= 0.00D+00.
 FoFCou: FMM=F IPFlag=           0 FMFlag=      100000 FMFlg1=           0
         NFxFlg=           0 DoJE=F BraDBF=F KetDBF=F FulRan=T
         Omega=  0.000000  0.000000  1.000000  0.000000  0.000000 ICntrl=    3107 IOpCl=  0
         NMat0=    1 NMatS0=    1 NMatT0=    0 NMatD0=    1 NMtDS0=    0 NMtDT0=    0
         I1Cent=           0 NGrid=           0.
 Petite list used in FoFCou.
 FoFDir/FoFCou used for L=0 through L=1.
 End of G2Drv Frequency-dependent properties file   721 does not exist.
 End of G2Drv Frequency-dependent properties file   722 does not exist.
 Leave Link 1110 at Sat Aug 17 22:38:15 2024, MaxMem=   13107200 cpu:       0.1
 (Enter /programs/64bit/g09/g09-gfortran/bin/l1002.exe)
 Minotr:  Closed shell wavefunction.
          IDoAtm=11
          Direct CPHF calculation.
          Differentiating once with respect to electric field.
                with respect to dipole field.
          Differentiating once with respect to nuclear coordinates.
          Using symmetry in CPHF.
          Requested convergence is 1.0D-08 RMS, and 1.0D-07 maximum.
          Secondary convergence is 1.0D-12 RMS, and 1.0D-12 maximum.
          NewPWx=T KeepS1=F KeepF1=F KeepIn=T MapXYZ=F SortEE=F KeepMc=T.
          MDV=      13107176 using IRadAn=       2.
 Generate precomputed XC quadrature information.
          Keep R1 ints in memory in canonical form, NReq=802458.
 Symmetry not used in FoFDir.
 MinBra= 0 MaxBra= 1 Meth= 1.
 IRaf=       0 NMat=   1 IRICut=       1 DoRegI=T DoRafI=F ISym2E= 0 JSym2E=0.
          Solving linear equations simultaneously, MaxMat=       0.
          There are     6 degrees of freedom in the 1st order CPHF.  IDoFFX=4.
      6 vectors produced by pass  0 Test12= 1.50D-16 1.67D-08 XBig12= 3.88D+00 1.95D+00.
 AX will form     6 AO Fock derivatives at one time.
      2 vectors produced by pass  1 Test12= 1.50D-16 1.67D-08 XBig12= 8.47D-02 2.86D-01.
      1 vectors produced by pass  2 Test12= 1.50D-16 1.67D-08 XBig12= 9.94D-06 3.12D-03.
 Inverted reduced A of dimension     9 with in-core refinement.
 FullF1:  Do perturbations    1 to     6.
 Isotropic polarizability for W=    0.000000        3.03 Bohr**3.
 End of Minotr Frequency-dependent properties file   721 does not exist.
 End of Minotr Frequency-dependent properties file   722 does not exist.
 Leave Link 1002 at Sat Aug 17 22:38:15 2024, MaxMem=   13107200 cpu:       0.2
 (Enter /programs/64bit/g09/g09-gfortran/bin/l601.exe)
 Copying SCF densities to generalized density rwf, IOpCl= 0 IROHF=0.

 **********************************************************************

            Population analysis using the SCF density.

 **********************************************************************

 Orbital symmetries:
       Occupied  (SGG)
       Virtual   (SGU) (SGG) (SGU) (PIU) (PIU) (SGG) (PIG) (PIG)
                 (SGU)
 The electronic state is 1-SGG.
 Alpha  occ. eigenvalues --   -0.42480
 Alpha virt. eigenvalues --    0.08009   0.34802   0.70342   1.04116   1.04116
 Alpha virt. eigenvalues --    1.66098   1.75968   1.75968   3.15920
     Molecular Orbital Coefficients:
                           1         2         3         4         5
                       (SGG)--O  (SGU)--V  (SGG)--V  (SGU)--V  (PIU)--V
     Eigenvalues --    -0.42480   0.08009   0.34802   0.70342   1.04116
   1 1   H  1S          0.40846   0.23188  -0.69850  -0.82591   0.00000
   2        2S          0.17260   1.74123   0.72540   1.77102   0.00000
   3        3PX         0.00000   0.00000   0.00000   0.00000   0.00000
   4        3PY         0.00000   0.00000   0.00000   0.00000   0.58284
   5        3PZ        -0.01787   0.01866   0.02370  -0.34621   0.00000
   6 2   H  1S          0.40846  -0.23188  -0.69850   0.82591   0.00000
   7        2S          0.17260  -1.74123   0.72540  -1.77102   0.00000
   8        3PX         0.00000   0.00000   0.00000   0.00000   0.00000
   9        3PY         0.00000   0.00000   0.00000   0.00000   0.58284
  10        3PZ         0.01787   0.01866  -0.02370  -0.34621   0.00000
                           6         7         8         9        10
                       (PIU)--V  (SGG)--V  (PIG)--V  (PIG)--V  (SGU)--V
     Eigenvalues --     1.04116   1.66098   1.75968   1.75968   3.15920
   1 1   H  1S          0.00000   0.44631   0.00000   0.00000   2.46339
   2        2S          0.00000  -0.22938   0.00000   0.00000   0.12454
   3        3PX         0.58284   0.00000   0.97300   0.00000   0.00000
   4        3PY         0.00000   0.00000   0.00000   0.97300   0.00000
   5        3PZ         0.00000   0.71419   0.00000   0.00000  -1.97807
   6 2   H  1S          0.00000   0.44631   0.00000   0.00000  -2.46339
   7        2S          0.00000  -0.22938   0.00000   0.00000  -0.12454
   8        3PX         0.58284   0.00000  -0.97300   0.00000   0.00000
   9        3PY         0.00000   0.00000   0.00000  -0.97300   0.00000
  10        3PZ         0.00000  -0.71419   0.00000   0.00000  -1.97807
     Density Matrix:
                           1         2         3         4         5
   1 1   H  1S          0.33369
   2        2S          0.14100   0.05958
   3        3PX        -0.00000  -0.00000   0.00000
   4        3PY        -0.00000  -0.00000   0.00000   0.00000
   5        3PZ        -0.01460  -0.00617   0.00000   0.00000   0.00064
   6 2   H  1S          0.33369   0.14100  -0.00000  -0.00000  -0.01460
   7        2S          0.14100   0.05958  -0.00000  -0.00000  -0.00617
   8        3PX         0.00000   0.00000  -0.00000  -0.00000  -0.00000
   9        3PY         0.00000   0.00000  -0.00000  -0.00000  -0.00000
  10        3PZ         0.01460   0.00617  -0.00000  -0.00000  -0.00064
                           6         7         8         9        10
   6 2   H  1S          0.33369
   7        2S          0.14100   0.05958
   8        3PX         0.00000   0.00000   0.00000
   9        3PY         0.00000   0.00000   0.00000   0.00000
  10        3PZ         0.01460   0.00617   0.00000   0.00000   0.00064
    Full Mulliken population analysis:
                           1         2         3         4         5
   1 1   H  1S          0.33369
   2        2S          0.09657   0.05958
   3        3PX         0.00000   0.00000   0.00000
   4        3PY         0.00000   0.00000   0.00000   0.00000
   5        3PZ         0.00000   0.00000   0.00000   0.00000   0.00064
   6 2   H  1S          0.18490   0.07888   0.00000   0.00000   0.00777
   7        2S          0.07888   0.05253   0.00000   0.00000   0.00103
   8        3PX         0.00000   0.00000  -0.00000   0.00000   0.00000
   9        3PY         0.00000   0.00000   0.00000  -0.00000   0.00000
  10        3PZ         0.00777   0.00103   0.00000   0.00000   0.00015
                           6         7         8         9        10
   6 2   H  1S          0.33369
   7        2S          0.09657   0.05958
   8        3PX         0.00000   0.00000   0.00000
   9        3PY         0.00000   0.00000   0.00000   0.00000
  10        3PZ         0.00000   0.00000   0.00000   0.00000   0.00064
     Gross orbital populations:
                           1
   1 1   H  1S          0.70181
   2        2S          0.28859
   3        3PX         0.00000
   4        3PY         0.00000
   5        3PZ         0.00959
   6 2   H  1S          0.70181
   7        2S          0.28859
   8        3PX         0.00000
   9        3PY         0.00000
  10        3PZ         0.00959
          Condensed to atoms (all electrons):
              1          2
     1  H    0.587046   0.412954
     2  H    0.412954   0.587046
 Mulliken atomic charges:
              1
     1  H   -0.000000
     2  H   -0.000000
 Sum of Mulliken atomic charges =  -0.00000
 Mulliken charges with hydrogens summed into heavy atoms:
              1
 Sum of Mulliken charges with hydrogens summed into heavy atoms =  -0.00000
 APT atomic charges:
              1
     1  H   -0.000000
     2  H   -0.000000
 Sum of APT charges=  -0.00000
 APT Atomic charges with hydrogens summed into heavy atoms:
              1
     1  H   -0.000000
     2  H   -0.000000
 Sum of APT charges=  -0.00000
 Electronic spatial extent (au):  <R**2>=              5.1175
 Charge=             -0.0000 electrons
 Dipole moment (field-independent basis, Debye):
    X=             -0.0000    Y=              0.0000    Z=             -0.0000  Tot=              0.0000
 Quadrupole moment (field-independent basis, Debye-Ang):
   XX=             -2.0264   YY=             -2.0264   ZZ=             -1.4409
   XY=             -0.0000   XZ=             -0.0000   YZ=              0.0000
 Traceless Quadrupole moment (field-independent basis, Debye-Ang):
   XX=             -0.1952   YY=             -0.1952   ZZ=              0.3904
   XY=             -0.0000   XZ=             -0.0000   YZ=              0.0000
 Octapole moment (field-independent basis, Debye-Ang**2):
  XXX=             -0.0000  YYY=              0.0000  ZZZ=              0.0000  XYY=             -0.0000
  XXY=              0.0000  XXZ=              0.0000  XZZ=             -0.0000  YZZ=              0.0000
  YYZ=              0.0000  XYZ=              0.0000
 Hexadecapole moment (field-independent basis, Debye-Ang**3):
 XXXX=             -1.8948 YYYY=             -1.8948 ZZZZ=             -2.7910 XXXY=             -0.0000
 XXXZ=              0.0000 YYYX=             -0.0000 YYYZ=              0.0000 ZZZX=              0.0000
 ZZZY=              0.0000 XXYY=             -0.6316 XXZZ=             -0.7987 YYZZ=             -0.7987
 XXYZ=              0.0000 YYXZ=              0.0000 ZZXY=             -0.0000
 N-N= 6.956906728736D-01 E-N=-3.569617102109D+00  KE= 1.091040204264D+00
 Symmetry AG   KE= 1.091040204264D+00
 Symmetry B1G  KE= 0.000000000000D+00
 Symmetry B2G  KE= 2.971904282939D-34
 Symmetry B3G  KE= 2.971904282939D-34
 Symmetry AU   KE= 0.000000000000D+00
 Symmetry B1U  KE= 6.250057820039D-33
 Symmetry B2U  KE= 6.342081398884D-35
 Symmetry B3U  KE= 6.342081398884D-35
 Orbital energies and kinetic energies (alpha):
                                 1                 2
   1         (SGG)--O         -0.424801          0.545520
   2         (SGU)--V          0.080086          0.407929
   3         (SGG)--V          0.348020          0.884785
   4         (SGU)--V          0.703415          1.603425
   5         (PIU)--V          1.041162          1.642452
   6         (PIU)--V          1.041162          1.642452
   7         (SGG)--V          1.660982          2.331531
   8         (PIG)--V          1.759684          2.305348
   9         (PIG)--V          1.759684          2.305348
  10         (SGU)--V          3.159195          4.443379
 Total kinetic energy from orbitals= 1.091040204264D+00
  Exact polarizability:   1.193  -0.000   1.193  -0.000   0.000   6.715
 Approx polarizability:   1.275  -0.000   1.275  -0.000  -0.000   7.977
 No NMR shielding tensors so no spin-rotation constants.
 Leave Link  601 at Sat Aug 17 22:38:16 2024, MaxMem=   13107200 cpu:       0.1
 (Enter /programs/64bit/g09/g09-gfortran/bin/l701.exe)
 Compute integral second derivatives.
 ... and contract with generalized density number  0.
 Leave Link  701 at Sat Aug 17 22:38:16 2024, MaxMem=   13107200 cpu:       0.1
 (Enter /programs/64bit/g09/g09-gfortran/bin/l702.exe)
 L702 exits ... SP integral derivatives will be done elsewhere.
 Leave Link  702 at Sat Aug 17 22:38:16 2024, MaxMem=   13107200 cpu:       0.0
 (Enter /programs/64bit/g09/g09-gfortran/bin/l703.exe)
 Compute integral second derivatives, UseDBF=F ICtDFT=           0.
 Integral derivatives from FoFDir, PRISM(SPDF).
 Calling FoFJK, ICntrl=    100127 FMM=F ISym2X=1 I1Cent= 0 IOpClX= 0 NMat=1 NMatS=1 NMatT=0.
 FoFCou: FMM=F IPFlag=           0 FMFlag=      100000 FMFlg1=         800
         NFxFlg=           0 DoJE=F BraDBF=F KetDBF=F FulRan=T
         Omega=  0.000000  0.000000  1.000000  0.000000  0.000000 ICntrl=  100127 IOpCl=  0
         NMat0=    1 NMatS0=    1 NMatT0=    0 NMatD0=    1 NMtDS0=    0 NMtDT0=    0
         I1Cent=           0 NGrid=           0.
 Petite list used in FoFCou.
 Leave Link  703 at Sat Aug 17 22:38:16 2024, MaxMem=   13107200 cpu:       0.2
 (Enter /programs/64bit/g09/g09-gfortran/bin/l716.exe)
 Dipole        =-9.86076132D-32 0.00000000D+00-5.63785130D-17
 Polarizability= 1.19311895D+00-6.09079973D-29 1.19311895D+00
                -5.13273912D-12 1.16280350D-11 6.71454734D+00
 Full mass-weighted force constant matrix:
 Low frequencies ---  -38.0197  -38.0197   -0.0001    0.0001    0.0001 4384.7464
 Diagonal vibrational polarizability:
        0.0000000       0.0000000       0.0000000
 Harmonic frequencies (cm**-1), IR intensities (KM/Mole), Raman scattering
 activities (A**4/AMU), depolarization ratios for plane and unpolarized
 incident light, reduced masses (AMU), force constants (mDyne/A),
 and normal coordinates:
                     1
                    SGG
 Frequencies --  4384.7464
 Red. masses --     1.0078
 Frc consts  --    11.4163
 IR Inten    --     0.0000
  Atom  AN      X      Y      Z
     1   1    -0.00   0.00   0.71
     2   1     0.00   0.00  -0.71

 -------------------
 - Thermochemistry -
 -------------------
 Temperature   298.150 Kelvin.  Pressure   1.00000 Atm.
 Atom     1 has atomic number  1 and mass   1.00783
 Atom     2 has atomic number  1 and mass   1.00783
 Molecular mass:     2.01565 amu.
 Principal axes and moments of inertia in atomic units:
                           1         2         3
     Eigenvalues --     0.00000   1.04117   1.04117
           X           -0.00000   1.00000  -0.00000
           Y            0.00000   0.00000   1.00000
           Z            1.00000   0.00000  -0.00000
 This molecule is a prolate symmetric top.
 Rotational symmetry number  2.
 Rotational temperature (Kelvin)     83.18871
 Rotational constant (GHZ):        1733.373481
 Zero-point vibrational energy      26226.6 (Joules/Mol)
                                    6.26831 (Kcal/Mol)
 Vibrational temperatures:   6308.66
          (Kelvin)
 
 Zero-point correction=                           0.009989 (Hartree/Particle)
 Thermal correction to Energy=                    0.012350
 Thermal correction to Enthalpy=                  0.013294
 Thermal correction to Gibbs Free Energy=        -0.001543
 Sum of electronic and zero-point Energies=             -1.163948
 Sum of electronic and thermal Energies=                -1.161588
 Sum of electronic and thermal Enthalpies=              -1.160643
 Sum of electronic and thermal Free Energies=           -1.175480
 
                     E (Thermal)             CV                S
                      KCal/Mol        Cal/Mol-Kelvin    Cal/Mol-Kelvin
 Total                    7.750              4.968             31.227
 Electronic               0.000              0.000              0.000
 Translational            0.889              2.981             28.080
 Rotational               0.592              1.987              3.146
 Vibrational              6.268              0.000              0.000
                       Q            Log10(Q)             Ln(Q)
 Total Bot       0.512532D+01          0.709721          1.634193
 Total V=0       0.201567D+06          5.304418         12.213875
 Vib (Bot)       0.254274D-04         -4.594697        -10.579682
 Vib (V=0)       0.100000D+01          0.000000          0.000000
 Electronic      0.100000D+01          0.000000          0.000000
 Translational   0.112481D+06          5.051078         11.630537
 Rotational      0.179201D+01          0.253340          0.583338
 ***** Axes restored to original set *****
 -------------------------------------------------------------------
 Center     Atomic                   Forces (Hartrees/Bohr)
 Number     Number              X              Y              Z
 -------------------------------------------------------------------
      1        1           0.000000000   -0.000000000   -0.000028819
      2        1          -0.000000000    0.000000000    0.000028819
 -------------------------------------------------------------------
 Cartesian Forces:  Max     0.000028819 RMS     0.000016638
 Force constants in Cartesian coordinates: 
                1             2             3             4             5 
      1 -0.275654D-04
      2  0.000000D+00 -0.275654D-04
      3  0.000000D+00  0.000000D+00  0.366636D+00
      4  0.275654D-04  0.000000D+00  0.000000D+00 -0.275654D-04
      5  0.000000D+00  0.275654D-04  0.000000D+00  0.000000D+00 -0.275654D-04
      6  0.000000D+00  0.000000D+00 -0.366636D+00  0.000000D+00  0.000000D+00
                6 
      6  0.366636D+00
 Force constants in internal coordinates: 
                1 
      1  0.366636D+00
 Leave Link  716 at Sat Aug 17 22:38:16 2024, MaxMem=   13107200 cpu:       0.0
 (Enter /programs/64bit/g09/g09-gfortran/bin/l103.exe)

 GradGradGradGradGradGradGradGradGradGradGradGradGradGradGradGradGradGrad
 Berny optimization.
 Internal  Forces:  Max     0.000028819 RMS     0.000028819
 Search for a local minimum.
 Step number   1 out of a maximum of    2
 All quantities printed in internal units (Hartrees-Bohrs-Radians)
 Second derivative matrix not updated -- analytic derivatives used.
 The second derivative matrix:
                          R1
           R1           0.36664
     Eigenvalues ---    0.36664
 Angle between quadratic step and forces=   0.00 degrees.
 Linear search not attempted -- first point.
 Iteration  1 RMS(Cart)=  0.00005558 RMS(Int)=  0.00000000
 Iteration  2 RMS(Cart)=  0.00000000 RMS(Int)=  0.00000000
 ClnCor:  largest displacement from symmetrization is 2.41D-21 for atom     2.
 Variable       Old X    -DE/DX   Delta X   Delta X   Delta X     New X
                                 (Linear)    (Quad)   (Total)
    R1        1.43742   0.00003   0.00000   0.00008   0.00008   1.43750
         Item               Value     Threshold  Converged?
 Maximum Force            0.000029     0.000450     YES
 RMS     Force            0.000029     0.000300     YES
 Maximum Displacement     0.000039     0.001800     YES
 RMS     Displacement     0.000056     0.001200     YES
 Predicted change in Energy=-1.132603D-09
 Optimization completed.
    -- Stationary point found.
                           ----------------------------
                           !   Optimized Parameters   !
                           ! (Angstroms and Degrees)  !
 --------------------------                            --------------------------
 ! Name  Definition              Value          Derivative Info.                !
 --------------------------------------------------------------------------------
 ! R1    R(1,2)                  0.7607         -DE/DX =    0.0                 !
 --------------------------------------------------------------------------------
 GradGradGradGradGradGradGradGradGradGradGradGradGradGradGradGradGradGrad

 Leave Link  103 at Sat Aug 17 22:38:16 2024, MaxMem=   13107200 cpu:       0.0
 (Enter /programs/64bit/g09/g09-gfortran/bin/l9999.exe)
 1\1\GINC-MOLMOD\Freq\RB3PW91\CC-pVDZ\H2\OSPITE\17-Aug-2024\0\\#P Geom=
 AllCheck Guess=TCheck SCRF=Check GenChk RB3PW91/CC-pVDZ Freq\\hydogen 
 (molecule) with cc-pVDZ basis set\\0,1\H,0.,0.,-0.0103250706\H,0.,0.,0
 .7503250706\\Version=EM64L-G09RevA.02\State=1-SGG\HF=-1.1739373\RMSD=6
 .364e-14\RMSF=1.664e-05\ZeroPoint=0.0099892\Thermal=0.0123497\Dipole=0
 .,0.,0.\DipoleDeriv=0.,0.,0.,0.,0.,0.,0.,0.,0.,0.,0.,0.,0.,0.,0.,0.,0.
 ,0.\Polar=1.1931189,0.,1.1931189,0.,0.,6.7145473\PG=D*H [C*(H1.H1)]\NI
 mag=0\\-0.00002757,0.,-0.00002757,0.,0.,0.36663638,0.00002757,0.,0.,-0
 .00002757,0.,0.00002757,0.,0.,-0.00002757,0.,0.,-0.36663638,0.,0.,0.36
 663638\\0.,0.,0.00002882,0.,0.,-0.00002882\\\@


 ON INDUCTION, OR "WHY DO YOU BELIEVE THE SUN WILL RISE TOMORROW?":

 ... THE FARMER WHO HAS FED THE CHICKEN EVERY DAY THROUGHOUT ITS
 LIFE AT LAST WRINGS ITS NECK INSTEAD, SHOWING THAT MORE REFINED VIEWS
 AS TO THE UNIFORMITY OF NATURE WOULD HAVE BEEN USEFUL TO THE CHICKEN.

                               -- BERTRAND RUSSELL
 Job cpu time:  0 days  0 hours  0 minutes  2.2 seconds.
 File lengths (MBytes):  RWF=      5 Int=      0 D2E=      0 Chk=      1 Scr=      1
 Normal termination of Gaussian 09 at Sat Aug 17 22:38:16 2024.
