 Entering Gaussian System, Link 0=/g100_work/pMI24_ChiCa/g09d1/g09d01/d01/build-node-6-2-59348/src/main/g09
 Input=geom.com
 Output=geom.log
 Initial command:
 /g100_work/pMI24_ChiCa/g09d1/g09d01/d01/build-node-6-2-59348/src/main/l1.exe "/g100_scratch/userexternal/ecabiati/g16_14389961/Gau-53801.inp" -scrdir="/g100_scratch/userexternal/ecabiati/g16_14389961/"
 Entering Link 1 = /g100_work/pMI24_ChiCa/g09d1/g09d01/d01/build-node-6-2-59348/src/main/l1.exe PID=     53802.
  
 Copyright (c) 1988,1990,1992,1993,1995,1998,2003,2009,2013,
            Gaussian, Inc.  All Rights Reserved.
  
 This is part of the Gaussian(R) 09 program.  It is based on
 the Gaussian(R) 03 system (copyright 2003, Gaussian, Inc.),
 the Gaussian(R) 98 system (copyright 1998, Gaussian, Inc.),
 the Gaussian(R) 94 system (copyright 1995, Gaussian, Inc.),
 the Gaussian 92(TM) system (copyright 1992, Gaussian, Inc.),
 the Gaussian 90(TM) system (copyright 1990, Gaussian, Inc.),
 the Gaussian 88(TM) system (copyright 1988, Gaussian, Inc.),
 the Gaussian 86(TM) system (copyright 1986, Carnegie Mellon
 University), and the Gaussian 82(TM) system (copyright 1983,
 Carnegie Mellon University). Gaussian is a federally registered
 trademark of Gaussian, Inc.
  
 This software contains proprietary and confidential information,
 including trade secrets, belonging to Gaussian, Inc.
  
 This software is provided under written license and may be
 used, copied, transmitted, or stored only in accord with that
 written license.
  
 The following legend is applicable only to US Government
 contracts under FAR:
  
                    RESTRICTED RIGHTS LEGEND
  
 Use, reproduction and disclosure by the US Government is
 subject to restrictions as set forth in subparagraphs (a)
 and (c) of the Commercial Computer Software - Restricted
 Rights clause in FAR 52.227-19.
  
 Gaussian, Inc.
 340 Quinnipiac St., Bldg. 40, Wallingford CT 06492
  
  
 ---------------------------------------------------------------
 Warning -- This program may not be used in any manner that
 competes with the business of Gaussian, Inc. or will provide
 assistance to any competitor of Gaussian, Inc.  The licensee
 of this program is prohibited from giving any competitor of
 Gaussian, Inc. access to this program.  By using this program,
 the user acknowledges that Gaussian, Inc. is engaged in the
 business of creating and licensing software in the field of
 computational chemistry and represents and warrants to the
 licensee that it is not a competitor of Gaussian, Inc. and that
 it will not use this program in any manner prohibited above.
 ---------------------------------------------------------------
  

 Cite this work as:
 Gaussian 09, Revision D.01,
 M. J. Frisch, G. W. Trucks, H. B. Schlegel, G. E. Scuseria, 
 M. A. Robb, J. R. Cheeseman, G. Scalmani, V. Barone, B. Mennucci, 
 G. A. Petersson, H. Nakatsuji, M. Caricato, X. Li, H. P. Hratchian, 
 A. F. Izmaylov, J. Bloino, G. Zheng, J. L. Sonnenberg, M. Hada, 
 M. Ehara, K. Toyota, R. Fukuda, J. Hasegawa, M. Ishida, T. Nakajima, 
 Y. Honda, O. Kitao, H. Nakai, T. Vreven, J. A. Montgomery, Jr., 
 J. E. Peralta, F. Ogliaro, M. Bearpark, J. J. Heyd, E. Brothers, 
 K. N. Kudin, V. N. Staroverov, T. Keith, R. Kobayashi, J. Normand, 
 K. Raghavachari, A. Rendell, J. C. Burant, S. S. Iyengar, J. Tomasi, 
 M. Cossi, N. Rega, J. M. Millam, M. Klene, J. E. Knox, J. B. Cross, 
 V. Bakken, C. Adamo, J. Jaramillo, R. Gomperts, R. E. Stratmann, 
 O. Yazyev, A. J. Austin, R. Cammi, C. Pomelli, J. W. Ochterski, 
 R. L. Martin, K. Morokuma, V. G. Zakrzewski, G. A. Voth, 
 P. Salvador, J. J. Dannenberg, S. Dapprich, A. D. Daniels, 
 O. Farkas, J. B. Foresman, J. V. Ortiz, J. Cioslowski, 
 and D. J. Fox, Gaussian, Inc., Wallingford CT, 2013.
 
 ******************************************
 Gaussian 09:  EM64L-G09RevD.01 24-Apr-2013
                12-Sep-2024 
 ******************************************
 %nproc=24
 Will use up to   24 processors via shared memory.
 %mem=2Gb
 ------------------------------------------------
 #p B3PW91/cc-pVTZ opt(internal) pop=full gfinput
 ------------------------------------------------
 1/10=7,14=-1,18=40,26=3,38=1/1,3;
 2/12=2,17=6,18=5,29=3,40=1/2;
 3/5=16,6=1,11=2,16=1,24=10,25=1,30=1,71=1,74=-6/1,2,3;
 4//1;
 5/5=2,38=5/2;
 6/7=3,28=1/1;
 7/29=1/1,2,3,16;
 1/10=7,14=-1,18=40,26=3/3(2);
 2/29=3/2;
 99//99;
 2/29=3/2;
 3/5=16,6=1,11=2,16=1,25=1,30=1,71=1,74=-6/1,2,3;
 4/5=5,16=3,69=1/1;
 5/5=2,38=5/2;
 7//1,2,3,16;
 1/14=-1,18=40,26=3/3(-5);
 2/29=3/2;
 6/7=3,19=2,28=1/1;
 99/9=1/99;
 Leave Link    1 at Thu Sep 12 13:12:36 2024, MaxMem=   268435456 cpu:         0.2
 (Enter /g100_work/pMI24_ChiCa/g09d1/g09d01/d01/build-node-6-2-59348/src/main/l101.exe)
 ---------------
 acetic acid opt
 ---------------
 Symbolic Z-matrix:
 Charge =  0 Multiplicity = 1
 c
 c                    1    cc2
 h                    2    hc3      1    hcc3
 h                    2    hc4      1    hcc4     3    dih4     0
 h                    2    hc5      1    hcc5     3    dih5     0
 o                    1    oc6      2    occ6     3    dih6     0
 o                    1    oc7      6    oco7     2    dih7     0
 h                    7    ho8      1    hoc8     6    dih8     0
       Variables:
  cc2                   1.5                      
  hc3                   1.07                     
  hcc3                109.471                    
  hc4                   1.07                     
  hcc4                109.471                    
  dih4                120.                       
  hc5                   1.07                     
  hcc5                109.471                    
  dih5               -120.                       
  oc6                   1.22                     
  occ6                120.                       
  dih6                180.                       
  oc7                   1.38                     
  oco7                120.                       
  dih7                180.                       
  ho8                   0.947                    
  hoc8                109.471                    
  dih8                180.                       
 
     4 tetrahedral angles replaced.
 NAtoms=      8 NQM=        8 NQMF=       0 NMMI=      0 NMMIF=      0
                NMic=       0 NMicF=      0.
    4 tetrahedral angles replaced.
                    Isotopes and Nuclear Properties:
 (Nuclear quadrupole moments (NQMom) in fm**2, nuclear magnetic moments (NMagM)
  in nuclear magnetons)

  Atom         1           2           3           4           5           6           7           8
 IAtWgt=          12          12           1           1           1          16          16           1
 AtmWgt=  12.0000000  12.0000000   1.0078250   1.0078250   1.0078250  15.9949146  15.9949146   1.0078250
 NucSpn=           0           0           1           1           1           0           0           1
 AtZEff=   0.0000000   0.0000000   0.0000000   0.0000000   0.0000000   0.0000000   0.0000000   0.0000000
 NQMom=    0.0000000   0.0000000   0.0000000   0.0000000   0.0000000   0.0000000   0.0000000   0.0000000
 NMagM=    0.0000000   0.0000000   2.7928460   2.7928460   2.7928460   0.0000000   0.0000000   2.7928460
 AtZNuc=   6.0000000   6.0000000   1.0000000   1.0000000   1.0000000   8.0000000   8.0000000   1.0000000
 Leave Link  101 at Thu Sep 12 13:12:36 2024, MaxMem=   268435456 cpu:         0.2
 (Enter /g100_work/pMI24_ChiCa/g09d1/g09d01/d01/build-node-6-2-59348/src/main/l103.exe)

 GradGradGradGradGradGradGradGradGradGradGradGradGradGradGradGradGradGrad
 Berny optimization.
 Initialization pass.
                       ----------------------------
                       !    Initial Parameters    !
                       ! (Angstroms and Degrees)  !
 ----------------------                            ----------------------
 !      Name          Value   Derivative information (Atomic Units)     !
 ------------------------------------------------------------------------
 !       cc2         1.5      estimate D2E/DX2                          !
 !       hc3         1.07     estimate D2E/DX2                          !
 !      hcc3       109.4712   estimate D2E/DX2                          !
 !       hc4         1.07     estimate D2E/DX2                          !
 !      hcc4       109.4712   estimate D2E/DX2                          !
 !      dih4       120.0      estimate D2E/DX2                          !
 !       hc5         1.07     estimate D2E/DX2                          !
 !      hcc5       109.4712   estimate D2E/DX2                          !
 !      dih5      -120.0      estimate D2E/DX2                          !
 !       oc6         1.22     estimate D2E/DX2                          !
 !      occ6       120.0      estimate D2E/DX2                          !
 !      dih6       180.0      estimate D2E/DX2                          !
 !       oc7         1.38     estimate D2E/DX2                          !
 !      oco7       120.0      estimate D2E/DX2                          !
 !      dih7       180.0      estimate D2E/DX2                          !
 !       ho8         0.947    estimate D2E/DX2                          !
 !      hoc8       109.4712   estimate D2E/DX2                          !
 !      dih8       180.0      estimate D2E/DX2                          !
 ------------------------------------------------------------------------
 Trust Radius=3.00D-01 FncErr=1.00D-07 GrdErr=1.00D-06
 Number of steps in this run=     28 maximum allowed number of steps=    100.
 GradGradGradGradGradGradGradGradGradGradGradGradGradGradGradGradGradGrad

 Leave Link  103 at Thu Sep 12 13:12:36 2024, MaxMem=   268435456 cpu:         0.1
 (Enter /g100_work/pMI24_ChiCa/g09d1/g09d01/d01/build-node-6-2-59348/src/main/l202.exe)
 ---------------------------------------------------------------------------------------------------
                            Z-MATRIX (ANGSTROMS AND DEGREES)
   CD    Cent   Atom    N1       Length/X        N2       Alpha/Y        N3        Beta/Z          J
 ---------------------------------------------------------------------------------------------------
      1      1  C 
      2      2  C        1   1.500000(     1)
      3      3  H        2   1.070000(     2)      1  109.471(     8)
      4      4  H        2   1.070000(     3)      1  109.471(     9)      3  120.000(    14)      0
      5      5  H        2   1.070000(     4)      1  109.471(    10)      3 -120.000(    15)      0
      6      6  O        1   1.220000(     5)      2  120.000(    11)      3  180.000(    16)      0
      7      7  O        1   1.380000(     6)      6  120.000(    12)      2  180.000(    17)      0
      8      8  H        7   0.947000(     7)      1  109.471(    13)      6  180.000(    18)      0
 ---------------------------------------------------------------------------------------------------
                         Z-Matrix orientation:                         
 ---------------------------------------------------------------------
 Center     Atomic      Atomic             Coordinates (Angstroms)
 Number     Number       Type             X           Y           Z
 ---------------------------------------------------------------------
      1          6           0        0.000000    0.000000    0.000000
      2          6           0        0.000000    0.000000    1.500000
      3          1           0        1.008806    0.000000    1.856667
      4          1           0       -0.504403    0.873651    1.856667
      5          1           0       -0.504403   -0.873651    1.856667
      6          8           0       -1.056551   -0.000000   -0.610000
      7          8           0        1.195115   -0.000000   -0.690000
      8          1           0        1.914910    0.000000   -0.074611
 ---------------------------------------------------------------------
                    Distance matrix (angstroms):
                    1          2          3          4          5
     1  C    0.000000
     2  C    1.500000   0.000000
     3  H    2.113031   1.070000   0.000000
     4  H    2.113031   1.070000   1.747303   0.000000
     5  H    2.113031   1.070000   1.747303   1.747303   0.000000
     6  O    1.220000   2.359746   3.217164   2.674431   2.674431
     7  O    1.380000   2.494875   2.553473   3.183887   3.183887
     8  H    1.916363   2.479170   2.133274   3.216547   3.216547
                    6          7          8
     6  O    0.000000
     7  O    2.253087   0.000000
     8  H    3.019309   0.947000   0.000000
 Stoichiometry    C2H4O2
 Framework group  CS[SG(C2H2O2),X(H2)]
 Deg. of freedom    12
 Full point group                 CS      NOp   2
 Largest Abelian subgroup         CS      NOp   2
 Largest concise Abelian subgroup CS      NOp   2
                         Standard orientation:                         
 ---------------------------------------------------------------------
 Center     Atomic      Atomic             Coordinates (Angstroms)
 Number     Number       Type             X           Y           Z
 ---------------------------------------------------------------------
      1          6           0        0.000000    0.159078    0.000000
      2          6           0       -0.890900   -1.047693    0.000000
      3          1           0       -0.291137   -1.933800   -0.000000
      4          1           0       -1.508535   -1.035055    0.873651
      5          1           0       -1.508535   -1.035055   -0.873651
      6          8           0       -0.487711    1.277353    0.000000
      7          8           0        1.371301    0.004375   -0.000000
      8          1           0        1.584887   -0.918225   -0.000000
 ---------------------------------------------------------------------
 Rotational constants (GHZ):     11.0692602      9.3695083      5.2361217
 Leave Link  202 at Thu Sep 12 13:12:36 2024, MaxMem=   268435456 cpu:         0.2
 (Enter /g100_work/pMI24_ChiCa/g09d1/g09d01/d01/build-node-6-2-59348/src/main/l301.exe)
 Standard basis: CC-pVTZ (5D, 7F)
 Ernie: Thresh=  0.10000D-02 Tol=  0.10000D-05 Strict=F.
 Ernie:  12 primitive shells out of 136 were deleted.
 AO basis set in the form of general basis input (Overlap normalization):
      1 0
 S   7 1.00       0.000000000000
      0.8236000000D+04  0.5419783203D-03
      0.1235000000D+04  0.4192873817D-02
      0.2808000000D+03  0.2152216205D-01
      0.7927000000D+02  0.8353432195D-01
      0.2559000000D+02  0.2395828457D+00
      0.8997000000D+01  0.4428528419D+00
      0.3319000000D+01  0.3517995618D+00
 S   6 1.00       0.000000000000
      0.2808000000D+03 -0.5949224937D-04
      0.7927000000D+02 -0.1148158310D-02
      0.2559000000D+02 -0.1001913745D-01
      0.8997000000D+01 -0.6121949230D-01
      0.3319000000D+01 -0.1732698541D+00
      0.3643000000D+00  0.1072915192D+01
 S   1 1.00       0.000000000000
      0.9059000000D+00  0.1000000000D+01
 S   1 1.00       0.000000000000
      0.1285000000D+00  0.1000000000D+01
 P   3 1.00       0.000000000000
      0.1871000000D+02  0.3942638716D-01
      0.4133000000D+01  0.2440889849D+00
      0.1200000000D+01  0.8154920089D+00
 P   1 1.00       0.000000000000
      0.3827000000D+00  0.1000000000D+01
 P   1 1.00       0.000000000000
      0.1209000000D+00  0.1000000000D+01
 D   1 1.00       0.000000000000
      0.1097000000D+01  0.1000000000D+01
 D   1 1.00       0.000000000000
      0.3180000000D+00  0.1000000000D+01
 F   1 1.00       0.000000000000
      0.7610000000D+00  0.1000000000D+01
 ****
      2 0
 S   7 1.00       0.000000000000
      0.8236000000D+04  0.5419783203D-03
      0.1235000000D+04  0.4192873817D-02
      0.2808000000D+03  0.2152216205D-01
      0.7927000000D+02  0.8353432195D-01
      0.2559000000D+02  0.2395828457D+00
      0.8997000000D+01  0.4428528419D+00
      0.3319000000D+01  0.3517995618D+00
 S   6 1.00       0.000000000000
      0.2808000000D+03 -0.5949224937D-04
      0.7927000000D+02 -0.1148158310D-02
      0.2559000000D+02 -0.1001913745D-01
      0.8997000000D+01 -0.6121949230D-01
      0.3319000000D+01 -0.1732698541D+00
      0.3643000000D+00  0.1072915192D+01
 S   1 1.00       0.000000000000
      0.9059000000D+00  0.1000000000D+01
 S   1 1.00       0.000000000000
      0.1285000000D+00  0.1000000000D+01
 P   3 1.00       0.000000000000
      0.1871000000D+02  0.3942638716D-01
      0.4133000000D+01  0.2440889849D+00
      0.1200000000D+01  0.8154920089D+00
 P   1 1.00       0.000000000000
      0.3827000000D+00  0.1000000000D+01
 P   1 1.00       0.000000000000
      0.1209000000D+00  0.1000000000D+01
 D   1 1.00       0.000000000000
      0.1097000000D+01  0.1000000000D+01
 D   1 1.00       0.000000000000
      0.3180000000D+00  0.1000000000D+01
 F   1 1.00       0.000000000000
      0.7610000000D+00  0.1000000000D+01
 ****
      3 0
 S   3 1.00       0.000000000000
      0.3387000000D+02  0.2549486323D-01
      0.5095000000D+01  0.1903627659D+00
      0.1159000000D+01  0.8521620222D+00
 S   1 1.00       0.000000000000
      0.3258000000D+00  0.1000000000D+01
 S   1 1.00       0.000000000000
      0.1027000000D+00  0.1000000000D+01
 P   1 1.00       0.000000000000
      0.1407000000D+01  0.1000000000D+01
 P   1 1.00       0.000000000000
      0.3880000000D+00  0.1000000000D+01
 D   1 1.00       0.000000000000
      0.1057000000D+01  0.1000000000D+01
 ****
      4 0
 S   3 1.00       0.000000000000
      0.3387000000D+02  0.2549486323D-01
      0.5095000000D+01  0.1903627659D+00
      0.1159000000D+01  0.8521620222D+00
 S   1 1.00       0.000000000000
      0.3258000000D+00  0.1000000000D+01
 S   1 1.00       0.000000000000
      0.1027000000D+00  0.1000000000D+01
 P   1 1.00       0.000000000000
      0.1407000000D+01  0.1000000000D+01
 P   1 1.00       0.000000000000
      0.3880000000D+00  0.1000000000D+01
 D   1 1.00       0.000000000000
      0.1057000000D+01  0.1000000000D+01
 ****
      5 0
 S   3 1.00       0.000000000000
      0.3387000000D+02  0.2549486323D-01
      0.5095000000D+01  0.1903627659D+00
      0.1159000000D+01  0.8521620222D+00
 S   1 1.00       0.000000000000
      0.3258000000D+00  0.1000000000D+01
 S   1 1.00       0.000000000000
      0.1027000000D+00  0.1000000000D+01
 P   1 1.00       0.000000000000
      0.1407000000D+01  0.1000000000D+01
 P   1 1.00       0.000000000000
      0.3880000000D+00  0.1000000000D+01
 D   1 1.00       0.000000000000
      0.1057000000D+01  0.1000000000D+01
 ****
      6 0
 S   7 1.00       0.000000000000
      0.1533000000D+05  0.5198089434D-03
      0.2299000000D+04  0.4020256215D-02
      0.5224000000D+03  0.2071282673D-01
      0.1473000000D+03  0.8101055358D-01
      0.4755000000D+02  0.2359629851D+00
      0.1676000000D+02  0.4426534455D+00
      0.6207000000D+01  0.3570644227D+00
 S   6 1.00       0.000000000000
      0.5224000000D+03 -0.4421150084D-04
      0.1473000000D+03 -0.1225910413D-02
      0.4755000000D+02 -0.1055177248D-01
      0.1676000000D+02 -0.6744526326D-01
      0.6207000000D+01 -0.1711986073D+00
      0.6882000000D+00  0.1073298561D+01
 S   1 1.00       0.000000000000
      0.1752000000D+01  0.1000000000D+01
 S   1 1.00       0.000000000000
      0.2384000000D+00  0.1000000000D+01
 P   3 1.00       0.000000000000
      0.3446000000D+02  0.4116348957D-01
      0.7749000000D+01  0.2577628359D+00
      0.2280000000D+01  0.8024192744D+00
 P   1 1.00       0.000000000000
      0.7156000000D+00  0.1000000000D+01
 P   1 1.00       0.000000000000
      0.2140000000D+00  0.1000000000D+01
 D   1 1.00       0.000000000000
      0.2314000000D+01  0.1000000000D+01
 D   1 1.00       0.000000000000
      0.6450000000D+00  0.1000000000D+01
 F   1 1.00       0.000000000000
      0.1428000000D+01  0.1000000000D+01
 ****
      7 0
 S   7 1.00       0.000000000000
      0.1533000000D+05  0.5198089434D-03
      0.2299000000D+04  0.4020256215D-02
      0.5224000000D+03  0.2071282673D-01
      0.1473000000D+03  0.8101055358D-01
      0.4755000000D+02  0.2359629851D+00
      0.1676000000D+02  0.4426534455D+00
      0.6207000000D+01  0.3570644227D+00
 S   6 1.00       0.000000000000
      0.5224000000D+03 -0.4421150084D-04
      0.1473000000D+03 -0.1225910413D-02
      0.4755000000D+02 -0.1055177248D-01
      0.1676000000D+02 -0.6744526326D-01
      0.6207000000D+01 -0.1711986073D+00
      0.6882000000D+00  0.1073298561D+01
 S   1 1.00       0.000000000000
      0.1752000000D+01  0.1000000000D+01
 S   1 1.00       0.000000000000
      0.2384000000D+00  0.1000000000D+01
 P   3 1.00       0.000000000000
      0.3446000000D+02  0.4116348957D-01
      0.7749000000D+01  0.2577628359D+00
      0.2280000000D+01  0.8024192744D+00
 P   1 1.00       0.000000000000
      0.7156000000D+00  0.1000000000D+01
 P   1 1.00       0.000000000000
      0.2140000000D+00  0.1000000000D+01
 D   1 1.00       0.000000000000
      0.2314000000D+01  0.1000000000D+01
 D   1 1.00       0.000000000000
      0.6450000000D+00  0.1000000000D+01
 F   1 1.00       0.000000000000
      0.1428000000D+01  0.1000000000D+01
 ****
      8 0
 S   3 1.00       0.000000000000
      0.3387000000D+02  0.2549486323D-01
      0.5095000000D+01  0.1903627659D+00
      0.1159000000D+01  0.8521620222D+00
 S   1 1.00       0.000000000000
      0.3258000000D+00  0.1000000000D+01
 S   1 1.00       0.000000000000
      0.1027000000D+00  0.1000000000D+01
 P   1 1.00       0.000000000000
      0.1407000000D+01  0.1000000000D+01
 P   1 1.00       0.000000000000
      0.3880000000D+00  0.1000000000D+01
 D   1 1.00       0.000000000000
      0.1057000000D+01  0.1000000000D+01
 ****

 There are   133 symmetry adapted cartesian basis functions of A'  symmetry.
 There are    67 symmetry adapted cartesian basis functions of A"  symmetry.
 There are   114 symmetry adapted basis functions of A'  symmetry.
 There are    62 symmetry adapted basis functions of A"  symmetry.
   176 basis functions,   276 primitive gaussians,   200 cartesian basis functions
    16 alpha electrons       16 beta electrons
       nuclear repulsion energy       120.4076146111 Hartrees.
 IExCor=  408 DFT=T Ex+Corr=B3PW91 ExCW=0 ScaHFX=  0.200000
 ScaDFX=  0.800000  0.720000  1.000000  0.810000 ScalE2=  1.000000  1.000000
 IRadAn=      0 IRanWt=     -1 IRanGd=            0 ICorTp=0 IEmpDi=  4
 NAtoms=    8 NActive=    8 NUniq=    7 SFac= 1.31D+00 NAtFMM=   60 NAOKFM=F Big=F
 Integral buffers will be    131072 words long.
 Raffenetti 2 integral format.
 Two-electron integral symmetry is turned on.
 Leave Link  301 at Thu Sep 12 13:12:36 2024, MaxMem=   268435456 cpu:         0.1
 (Enter /g100_work/pMI24_ChiCa/g09d1/g09d01/d01/build-node-6-2-59348/src/main/l302.exe)
 NPDir=0 NMtPBC=     1 NCelOv=     1 NCel=       1 NClECP=     1 NCelD=      1
         NCelK=      1 NCelE2=     1 NClLst=     1 CellRange=     0.0.
 One-electron integrals computed using PRISM.
 One-electron integral symmetry used in STVInt
 NBasis=   176 RedAO= T EigKep=  1.10D-03  NBF=   114    62
 NBsUse=   176 1.00D-06 EigRej= -1.00D+00 NBFU=   114    62
 Precomputing XC quadrature grid using
 IXCGrd= 4 IRadAn=           0 IRanWt=          -1 IRanGd=           0 AccXCQ= 0.00D+00.
 Generated NRdTot=       0 NPtTot=           0 NUsed=           0 NTot=          32
 NSgBfM=   200   200   200   200   200 MxSgAt=     8 MxSgA2=     8.
 Leave Link  302 at Thu Sep 12 13:12:37 2024, MaxMem=   268435456 cpu:         1.9
 (Enter /g100_work/pMI24_ChiCa/g09d1/g09d01/d01/build-node-6-2-59348/src/main/l303.exe)
 DipDrv:  MaxL=1.
 Leave Link  303 at Thu Sep 12 13:12:37 2024, MaxMem=   268435456 cpu:         0.2
 (Enter /g100_work/pMI24_ChiCa/g09d1/g09d01/d01/build-node-6-2-59348/src/main/l401.exe)
 ExpMin= 1.03D-01 ExpMax= 1.53D+04 ExpMxC= 5.22D+02 IAcc=1 IRadAn=         1 AccDes= 0.00D+00
 Harris functional with IExCor=  408 and IRadAn=       1 diagonalized for initial guess.
 HarFok:  IExCor=  408 AccDes= 0.00D+00 IRadAn=         1 IDoV= 1 UseB2=F ITyADJ=14
 ICtDFT=  3500011 ScaDFX=  1.000000  1.000000  1.000000  1.000000
 FoFCou: FMM=F IPFlag=           0 FMFlag=      100000 FMFlg1=           0
         NFxFlg=           0 DoJE=T BraDBF=F KetDBF=T FulRan=T
         wScrn=  0.000000 ICntrl=     500 IOpCl=  0 I1Cent=   200000004 NGrid=           0
         NMat0=    1 NMatS0=      1 NMatT0=    0 NMatD0=    1 NMtDS0=    0 NMtDT0=    0
 Petite list used in FoFCou.
 Harris En= -229.237332296286    
 JPrj=0 DoOrth=F DoCkMO=F.
 Initial guess orbital symmetries:
       Occupied  (A') (A') (A') (A') (A') (A') (A') (A') (A') (A')
                 (A") (A') (A") (A') (A") (A')
       Virtual   (A") (A') (A') (A') (A") (A') (A') (A') (A") (A')
                 (A') (A") (A') (A') (A') (A") (A') (A') (A') (A")
                 (A') (A") (A') (A') (A') (A") (A') (A") (A') (A")
                 (A") (A') (A") (A') (A") (A') (A') (A') (A") (A')
                 (A') (A') (A') (A") (A') (A") (A') (A') (A') (A")
                 (A') (A') (A") (A") (A') (A') (A") (A') (A') (A")
                 (A') (A') (A") (A') (A') (A") (A') (A') (A') (A')
                 (A") (A") (A') (A") (A') (A") (A') (A") (A') (A")
                 (A') (A') (A") (A') (A") (A') (A") (A') (A") (A")
                 (A') (A") (A') (A') (A") (A') (A') (A") (A') (A')
                 (A") (A') (A") (A') (A') (A") (A') (A") (A") (A')
                 (A") (A') (A') (A') (A") (A') (A') (A') (A") (A')
                 (A') (A') (A') (A") (A") (A') (A") (A') (A') (A")
                 (A') (A") (A') (A') (A") (A') (A") (A') (A") (A')
                 (A") (A') (A") (A') (A") (A') (A") (A') (A") (A")
                 (A') (A') (A') (A') (A') (A') (A') (A') (A') (A')
 The electronic state of the initial guess is 1-A'.
 Leave Link  401 at Thu Sep 12 13:12:37 2024, MaxMem=   268435456 cpu:         2.1
 (Enter /g100_work/pMI24_ChiCa/g09d1/g09d01/d01/build-node-6-2-59348/src/main/l502.exe)
 Closed shell SCF:
 Using DIIS extrapolation, IDIIS=  1040.
 Integral symmetry usage will be decided dynamically.
 Keep R1 ints in memory in symmetry-blocked form, NReq=182671306.
 IVT=      145050 IEndB=      145050 NGot=   268435456 MDV=   207078003
 LenX=   207078003 LenY=   207037562
 Requested convergence on RMS density matrix=1.00D-08 within 128 cycles.
 Requested convergence on MAX density matrix=1.00D-06.
 Requested convergence on             energy=1.00D-06.
 No special actions if energy rises.
 FoFCou: FMM=F IPFlag=           0 FMFlag=           0 FMFlg1=           0
         NFxFlg=           0 DoJE=F BraDBF=F KetDBF=F FulRan=T
         wScrn=  0.000000 ICntrl=     600 IOpCl=  0 I1Cent=           0 NGrid=           0
         NMat0=    1 NMatS0=  15576 NMatT0=    0 NMatD0=    1 NMtDS0=    0 NMtDT0=    0
 Petite list used in FoFCou.
 Integral accuracy reduced to 1.0D-05 until final iterations.

 Cycle   1  Pass 0  IDiag  1:
 E= -228.915371625751    
 DIIS: error= 4.42D-02 at cycle   1 NSaved=   1.
 NSaved= 1 IEnMin= 1 EnMin= -228.915371625751     IErMin= 1 ErrMin= 4.42D-02
 ErrMax= 4.42D-02  0.00D+00 EMaxC= 1.00D-01 BMatC= 2.18D-01 BMatP= 2.18D-01
 IDIUse=3 WtCom= 5.58D-01 WtEn= 4.42D-01
 Coeff-Com:  0.100D+01
 Coeff-En:   0.100D+01
 Coeff:      0.100D+01
 Gap=     0.142 Goal=   None    Shift=    0.000
 GapD=    0.142 DampG=1.000 DampE=0.500 DampFc=0.5000 IDamp=-1.
 Damping current iteration by 5.00D-01
 RMSDP=4.65D-03 MaxDP=1.97D-01              OVMax= 2.94D-01

 Cycle   2  Pass 0  IDiag  1:
 E= -228.949855574921     Delta-E=       -0.034483949171 Rises=F Damp=T
 DIIS: error= 1.28D-02 at cycle   2 NSaved=   2.
 NSaved= 2 IEnMin= 2 EnMin= -228.949855574921     IErMin= 2 ErrMin= 1.28D-02
 ErrMax= 1.28D-02  0.00D+00 EMaxC= 1.00D-01 BMatC= 3.64D-02 BMatP= 2.18D-01
 IDIUse=3 WtCom= 8.72D-01 WtEn= 1.28D-01
 Coeff-Com:  0.243D+00 0.757D+00
 Coeff-En:   0.393D+00 0.607D+00
 Coeff:      0.262D+00 0.738D+00
 Gap=     0.269 Goal=   None    Shift=    0.000
 RMSDP=1.34D-03 MaxDP=5.56D-02 DE=-3.45D-02 OVMax= 2.06D-01

 Cycle   3  Pass 0  IDiag  1:
 E= -229.051078191455     Delta-E=       -0.101222616533 Rises=F Damp=F
 DIIS: error= 1.65D-02 at cycle   3 NSaved=   3.
 NSaved= 3 IEnMin= 3 EnMin= -229.051078191455     IErMin= 2 ErrMin= 1.28D-02
 ErrMax= 1.65D-02  0.00D+00 EMaxC= 1.00D-01 BMatC= 3.17D-02 BMatP= 3.64D-02
 IDIUse=3 WtCom= 8.35D-01 WtEn= 1.65D-01
 Coeff-Com:  0.106D+00 0.480D+00 0.414D+00
 Coeff-En:   0.000D+00 0.000D+00 0.100D+01
 Coeff:      0.882D-01 0.401D+00 0.511D+00
 Gap=     0.265 Goal=   None    Shift=    0.000
 RMSDP=7.18D-04 MaxDP=2.12D-02 DE=-1.01D-01 OVMax= 8.78D-02

 Cycle   4  Pass 0  IDiag  1:
 E= -229.071660002388     Delta-E=       -0.020581810933 Rises=F Damp=F
 DIIS: error= 8.13D-03 at cycle   4 NSaved=   4.
 NSaved= 4 IEnMin= 4 EnMin= -229.071660002388     IErMin= 4 ErrMin= 8.13D-03
 ErrMax= 8.13D-03  0.00D+00 EMaxC= 1.00D-01 BMatC= 6.53D-03 BMatP= 3.17D-02
 IDIUse=3 WtCom= 9.19D-01 WtEn= 8.13D-02
 Coeff-Com:  0.242D-01 0.859D-01 0.314D+00 0.576D+00
 Coeff-En:   0.000D+00 0.000D+00 0.187D+00 0.813D+00
 Coeff:      0.222D-01 0.789D-01 0.303D+00 0.596D+00
 Gap=     0.270 Goal=   None    Shift=    0.000
 RMSDP=2.64D-04 MaxDP=6.53D-03 DE=-2.06D-02 OVMax= 3.06D-02

 Cycle   5  Pass 0  IDiag  1:
 E= -229.075891896170     Delta-E=       -0.004231893782 Rises=F Damp=F
 DIIS: error= 1.63D-03 at cycle   5 NSaved=   5.
 NSaved= 5 IEnMin= 5 EnMin= -229.075891896170     IErMin= 5 ErrMin= 1.63D-03
 ErrMax= 1.63D-03  0.00D+00 EMaxC= 1.00D-01 BMatC= 4.37D-04 BMatP= 6.53D-03
 IDIUse=3 WtCom= 9.84D-01 WtEn= 1.63D-02
 Coeff-Com:  0.368D-02-0.198D-02 0.139D+00 0.368D+00 0.492D+00
 Coeff-En:   0.000D+00 0.000D+00 0.000D+00 0.000D+00 0.100D+01
 Coeff:      0.362D-02-0.194D-02 0.137D+00 0.362D+00 0.500D+00
 Gap=     0.270 Goal=   None    Shift=    0.000
 RMSDP=6.89D-05 MaxDP=1.77D-03 DE=-4.23D-03 OVMax= 6.01D-03

 Cycle   6  Pass 0  IDiag  1:
 E= -229.076216336936     Delta-E=       -0.000324440766 Rises=F Damp=F
 DIIS: error= 2.78D-04 at cycle   6 NSaved=   6.
 NSaved= 6 IEnMin= 6 EnMin= -229.076216336936     IErMin= 6 ErrMin= 2.78D-04
 ErrMax= 2.78D-04  0.00D+00 EMaxC= 1.00D-01 BMatC= 9.75D-06 BMatP= 4.37D-04
 IDIUse=3 WtCom= 9.97D-01 WtEn= 2.78D-03
 Coeff-Com:  0.670D-03-0.449D-02 0.319D-01 0.805D-01 0.182D+00 0.710D+00
 Coeff-En:   0.000D+00 0.000D+00 0.000D+00 0.000D+00 0.000D+00 0.100D+01
 Coeff:      0.668D-03-0.448D-02 0.318D-01 0.803D-01 0.181D+00 0.711D+00
 Gap=     0.270 Goal=   None    Shift=    0.000
 RMSDP=9.94D-06 MaxDP=2.21D-04 DE=-3.24D-04 OVMax= 8.30D-04

 Initial convergence to 1.0D-05 achieved.  Increase integral accuracy.
 Cycle   7  Pass 1  IDiag  1:
 E= -229.076239111730     Delta-E=       -0.000022774794 Rises=F Damp=F
 DIIS: error= 3.57D-05 at cycle   1 NSaved=   1.
 NSaved= 1 IEnMin= 1 EnMin= -229.076239111730     IErMin= 1 ErrMin= 3.57D-05
 ErrMax= 3.57D-05  0.00D+00 EMaxC= 1.00D-01 BMatC= 3.55D-07 BMatP= 3.55D-07
 IDIUse=1 WtCom= 1.00D+00 WtEn= 0.00D+00
 Coeff-Com:  0.100D+01
 Coeff:      0.100D+01
 Gap=     0.270 Goal=   None    Shift=    0.000
 RMSDP=9.94D-06 MaxDP=2.21D-04 DE=-2.28D-05 OVMax= 3.40D-04

 Cycle   8  Pass 1  IDiag  1:
 E= -229.076238923258     Delta-E=        0.000000188472 Rises=F Damp=F
 DIIS: error= 6.34D-05 at cycle   2 NSaved=   2.
 NSaved= 2 IEnMin= 1 EnMin= -229.076239111730     IErMin= 1 ErrMin= 3.57D-05
 ErrMax= 6.34D-05  0.00D+00 EMaxC= 1.00D-01 BMatC= 6.30D-07 BMatP= 3.55D-07
 IDIUse=1 WtCom= 1.00D+00 WtEn= 0.00D+00
 Coeff-Com:  0.576D+00 0.424D+00
 Coeff:      0.576D+00 0.424D+00
 Gap=     0.270 Goal=   None    Shift=    0.000
 RMSDP=3.35D-06 MaxDP=8.53D-05 DE= 1.88D-07 OVMax= 3.24D-04

 Cycle   9  Pass 1  IDiag  1:
 E= -229.076239374583     Delta-E=       -0.000000451325 Rises=F Damp=F
 DIIS: error= 2.25D-05 at cycle   3 NSaved=   3.
 NSaved= 3 IEnMin= 3 EnMin= -229.076239374583     IErMin= 3 ErrMin= 2.25D-05
 ErrMax= 2.25D-05  0.00D+00 EMaxC= 1.00D-01 BMatC= 5.70D-08 BMatP= 3.55D-07
 IDIUse=1 WtCom= 1.00D+00 WtEn= 0.00D+00
 Coeff-Com:  0.301D+00 0.274D+00 0.426D+00
 Coeff:      0.301D+00 0.274D+00 0.426D+00
 Gap=     0.270 Goal=   None    Shift=    0.000
 RMSDP=7.62D-07 MaxDP=2.23D-05 DE=-4.51D-07 OVMax= 8.71D-05

 Cycle  10  Pass 1  IDiag  1:
 E= -229.076239414232     Delta-E=       -0.000000039648 Rises=F Damp=F
 DIIS: error= 4.08D-06 at cycle   4 NSaved=   4.
 NSaved= 4 IEnMin= 4 EnMin= -229.076239414232     IErMin= 4 ErrMin= 4.08D-06
 ErrMax= 4.08D-06  0.00D+00 EMaxC= 1.00D-01 BMatC= 2.09D-09 BMatP= 5.70D-08
 IDIUse=1 WtCom= 1.00D+00 WtEn= 0.00D+00
 Coeff-Com: -0.171D-02 0.194D-01 0.174D+00 0.808D+00
 Coeff:     -0.171D-02 0.194D-01 0.174D+00 0.808D+00
 Gap=     0.270 Goal=   None    Shift=    0.000
 RMSDP=1.80D-07 MaxDP=5.49D-06 DE=-3.96D-08 OVMax= 1.69D-05

 Cycle  11  Pass 1  IDiag  1:
 E= -229.076239415871     Delta-E=       -0.000000001640 Rises=F Damp=F
 DIIS: error= 9.23D-07 at cycle   5 NSaved=   5.
 NSaved= 5 IEnMin= 5 EnMin= -229.076239415871     IErMin= 5 ErrMin= 9.23D-07
 ErrMax= 9.23D-07  0.00D+00 EMaxC= 1.00D-01 BMatC= 9.92D-11 BMatP= 2.09D-09
 IDIUse=1 WtCom= 1.00D+00 WtEn= 0.00D+00
 Coeff-Com: -0.722D-02 0.444D-02 0.725D-01 0.392D+00 0.538D+00
 Coeff:     -0.722D-02 0.444D-02 0.725D-01 0.392D+00 0.538D+00
 Gap=     0.270 Goal=   None    Shift=    0.000
 RMSDP=3.51D-08 MaxDP=9.85D-07 DE=-1.64D-09 OVMax= 2.44D-06

 Cycle  12  Pass 1  IDiag  1:
 E= -229.076239415935     Delta-E=       -0.000000000064 Rises=F Damp=F
 DIIS: error= 2.40D-07 at cycle   6 NSaved=   6.
 NSaved= 6 IEnMin= 6 EnMin= -229.076239415935     IErMin= 6 ErrMin= 2.40D-07
 ErrMax= 2.40D-07  0.00D+00 EMaxC= 1.00D-01 BMatC= 9.17D-12 BMatP= 9.92D-11
 IDIUse=1 WtCom= 1.00D+00 WtEn= 0.00D+00
 Coeff-Com: -0.362D-02 0.836D-03 0.185D-01 0.125D+00 0.262D+00 0.596D+00
 Coeff:     -0.362D-02 0.836D-03 0.185D-01 0.125D+00 0.262D+00 0.596D+00
 Gap=     0.270 Goal=   None    Shift=    0.000
 RMSDP=9.70D-09 MaxDP=2.67D-07 DE=-6.36D-11 OVMax= 5.91D-07

 SCF Done:  E(RB3PW91) =  -229.076239416     A.U. after   12 cycles
            NFock= 12  Conv=0.97D-08     -V/T= 2.0063
 KE= 2.276505561369D+02 PE=-7.783751223751D+02 EE= 2.012407122111D+02
 Leave Link  502 at Thu Sep 12 13:12:39 2024, MaxMem=   268435456 cpu:        27.9
 (Enter /g100_work/pMI24_ChiCa/g09d1/g09d01/d01/build-node-6-2-59348/src/main/l601.exe)
 Copying SCF densities to generalized density rwf, IOpCl= 0 IROHF=0.

 **********************************************************************

            Population analysis using the SCF density.

 **********************************************************************

 Orbital symmetries:
       Occupied  (A') (A') (A') (A') (A') (A') (A') (A') (A') (A")
                 (A') (A') (A") (A') (A") (A')
       Virtual   (A") (A') (A') (A') (A") (A') (A') (A") (A') (A')
                 (A') (A") (A') (A') (A') (A") (A') (A') (A') (A")
                 (A') (A") (A') (A') (A') (A") (A') (A") (A') (A")
                 (A") (A') (A") (A') (A") (A') (A') (A') (A") (A')
                 (A') (A') (A') (A") (A') (A") (A') (A') (A') (A")
                 (A') (A') (A") (A") (A') (A') (A') (A") (A") (A')
                 (A') (A') (A") (A') (A') (A") (A') (A') (A') (A')
                 (A") (A") (A') (A") (A') (A") (A') (A") (A') (A")
                 (A') (A') (A") (A') (A") (A') (A") (A") (A') (A")
                 (A') (A") (A') (A') (A") (A') (A') (A") (A') (A")
                 (A') (A') (A") (A') (A') (A") (A') (A") (A") (A')
                 (A") (A') (A') (A") (A') (A') (A') (A') (A") (A')
                 (A') (A') (A") (A') (A") (A') (A") (A') (A') (A")
                 (A') (A") (A') (A') (A") (A') (A") (A') (A") (A')
                 (A") (A') (A") (A') (A") (A') (A") (A') (A") (A')
                 (A") (A') (A') (A') (A') (A') (A') (A') (A') (A')
 The electronic state is 1-A'.
 Alpha  occ. eigenvalues --  -19.17492 -19.10475 -10.30343 -10.18463  -1.10656
 Alpha  occ. eigenvalues --   -1.02373  -0.77367  -0.62718  -0.52708  -0.48109
 Alpha  occ. eigenvalues --   -0.47828  -0.42519  -0.40778  -0.39394  -0.32612
 Alpha  occ. eigenvalues --   -0.27945
 Alpha virt. eigenvalues --   -0.00905   0.01919   0.07258   0.10880   0.12202
 Alpha virt. eigenvalues --    0.15519   0.21407   0.24720   0.25185   0.29060
 Alpha virt. eigenvalues --    0.32490   0.33431   0.36611   0.40422   0.42628
 Alpha virt. eigenvalues --    0.43882   0.45551   0.46801   0.50199   0.54278
 Alpha virt. eigenvalues --    0.55613   0.60215   0.62451   0.64438   0.67288
 Alpha virt. eigenvalues --    0.69054   0.73262   0.76269   0.79539   0.83672
 Alpha virt. eigenvalues --    0.86308   0.90102   0.95938   0.96336   0.98806
 Alpha virt. eigenvalues --    1.01794   1.06035   1.10320   1.15690   1.17081
 Alpha virt. eigenvalues --    1.20237   1.25459   1.28825   1.30571   1.34130
 Alpha virt. eigenvalues --    1.35408   1.46562   1.50361   1.53330   1.55993
 Alpha virt. eigenvalues --    1.62570   1.70112   1.72037   1.85371   1.93659
 Alpha virt. eigenvalues --    1.97583   2.02118   2.03662   2.10700   2.13076
 Alpha virt. eigenvalues --    2.21757   2.25745   2.31740   2.36506   2.39975
 Alpha virt. eigenvalues --    2.50463   2.52973   2.56901   2.64401   2.70555
 Alpha virt. eigenvalues --    2.74921   2.76776   2.78173   2.81943   2.92375
 Alpha virt. eigenvalues --    2.93834   2.96260   2.97181   3.02999   3.08910
 Alpha virt. eigenvalues --    3.09711   3.12355   3.13201   3.17863   3.19570
 Alpha virt. eigenvalues --    3.27008   3.27385   3.29383   3.32506   3.41937
 Alpha virt. eigenvalues --    3.43105   3.44720   3.48595   3.49587   3.54703
 Alpha virt. eigenvalues --    3.59617   3.62433   3.76074   3.76869   3.77657
 Alpha virt. eigenvalues --    3.80994   3.81415   3.83734   3.91596   3.96996
 Alpha virt. eigenvalues --    4.03847   4.09013   4.09065   4.11916   4.14295
 Alpha virt. eigenvalues --    4.19021   4.26986   4.29988   4.34621   4.35070
 Alpha virt. eigenvalues --    4.41247   4.44079   4.64784   4.81948   4.83454
 Alpha virt. eigenvalues --    4.88485   4.92325   5.09024   5.11254   5.15655
 Alpha virt. eigenvalues --    5.15830   5.15979   5.21010   5.23421   5.30174
 Alpha virt. eigenvalues --    5.30503   5.30882   5.33630   5.55975   5.59886
 Alpha virt. eigenvalues --    5.69183   5.78993   5.79792   5.89269   6.00957
 Alpha virt. eigenvalues --    6.15754   6.21982   6.33650   6.39826   6.45435
 Alpha virt. eigenvalues --    6.59233   6.61007   6.66188   6.73625   6.81130
 Alpha virt. eigenvalues --    6.83067   6.90400   7.01650   7.06244   7.22382
 Alpha virt. eigenvalues --    7.38719   9.04577  12.05017  12.49183  13.78297
     Molecular Orbital Coefficients:
                           1         2         3         4         5
                           O         O         O         O         O
     Eigenvalues --   -19.17492 -19.10475 -10.30343 -10.18463  -1.10656
   1 1   C  1S          0.00009  -0.00004   0.97561  -0.00123  -0.10464
   2        2S          0.00068   0.00029  -0.00120  -0.00045   0.22090
   3        3S         -0.00030   0.00039   0.04892   0.00069   0.05624
   4        4S         -0.00009  -0.00106   0.01109  -0.00626   0.04890
   5        5PX        -0.00008  -0.00013   0.00077  -0.00016   0.03702
   6        5PY         0.00003   0.00034   0.00007  -0.00034   0.02864
   7        5PZ         0.00000   0.00000   0.00000   0.00000   0.00000
   8        6PX         0.00176  -0.00026  -0.00306  -0.00003   0.04151
   9        6PY        -0.00042   0.00050   0.00364   0.00075   0.02097
  10        6PZ         0.00000   0.00000   0.00000   0.00000   0.00000
  11        7PX        -0.00039   0.00074  -0.00200  -0.00008  -0.00273
  12        7PY         0.00008  -0.00099  -0.00091   0.00272   0.00069
  13        7PZ         0.00000   0.00000   0.00000   0.00000   0.00000
  14        8D 0       -0.00015  -0.00009  -0.00165   0.00017  -0.01060
  15        8D+1        0.00000   0.00000   0.00000   0.00000   0.00000
  16        8D-1        0.00000   0.00000   0.00000   0.00000   0.00000
  17        8D+2        0.00037  -0.00018  -0.00060   0.00003   0.00295
  18        8D-2       -0.00002  -0.00016  -0.00083  -0.00010  -0.00627
  19        9D 0       -0.00031   0.00017  -0.00169   0.00063  -0.01299
  20        9D+1        0.00000   0.00000   0.00000   0.00000   0.00000
  21        9D-1        0.00000   0.00000   0.00000   0.00000   0.00000
  22        9D+2        0.00051   0.00041  -0.00119   0.00029   0.00767
  23        9D-2       -0.00025   0.00029  -0.00043  -0.00133  -0.01121
  24       10F 0        0.00000   0.00000   0.00000   0.00000   0.00000
  25       10F+1       -0.00020  -0.00006   0.00021  -0.00023  -0.00148
  26       10F-1        0.00008   0.00018  -0.00051  -0.00036  -0.00079
  27       10F+2        0.00000   0.00000   0.00000   0.00000   0.00000
  28       10F-2        0.00000   0.00000   0.00000   0.00000   0.00000
  29       10F+3       -0.00003  -0.00045   0.00193  -0.00084   0.00763
  30       10F-3       -0.00010   0.00015  -0.00070   0.00036  -0.00314
  31 2   C  1S          0.00001   0.00004   0.00088   0.97647  -0.01716
  32        2S          0.00010   0.00031  -0.00063   0.00777   0.03514
  33        3S          0.00001   0.00002   0.00074   0.05040   0.00902
  34        4S         -0.00035   0.00007  -0.00333   0.02604  -0.00074
  35        5PX         0.00003  -0.00000   0.00027   0.00018   0.00915
  36        5PY        -0.00001   0.00006   0.00048   0.00015   0.00938
  37        5PZ         0.00000   0.00000   0.00000   0.00000   0.00000
  38        6PX         0.00009   0.00011  -0.00108  -0.00370   0.00732
  39        6PY         0.00018  -0.00012  -0.00243  -0.00479   0.00847
  40        6PZ         0.00000   0.00000   0.00000   0.00000   0.00000
  41        7PX         0.00016  -0.00018  -0.00176   0.00010   0.00061
  42        7PY        -0.00003   0.00017  -0.00245  -0.00072  -0.00356
  43        7PZ         0.00000   0.00000   0.00000   0.00000   0.00000
  44        8D 0       -0.00004  -0.00004   0.00015   0.00042  -0.00089
  45        8D+1        0.00000   0.00000   0.00000   0.00000   0.00000
  46        8D-1        0.00000   0.00000   0.00000   0.00000   0.00000
  47        8D+2       -0.00000  -0.00005   0.00008   0.00020   0.00001
  48        8D-2        0.00002   0.00004  -0.00022  -0.00075   0.00076
  49        9D 0        0.00020  -0.00002   0.00087   0.00145   0.00304
  50        9D+1        0.00000   0.00000   0.00000   0.00000   0.00000
  51        9D-1        0.00000   0.00000   0.00000   0.00000   0.00000
  52        9D+2       -0.00024   0.00035   0.00104   0.00077   0.00265
  53        9D-2        0.00015   0.00010  -0.00249  -0.00194   0.00128
  54       10F 0        0.00000   0.00000   0.00000   0.00000   0.00000
  55       10F+1        0.00003   0.00001   0.00020  -0.00220  -0.00041
  56       10F-1        0.00001   0.00004   0.00060   0.00046  -0.00000
  57       10F+2        0.00000   0.00000   0.00000   0.00000   0.00000
  58       10F-2        0.00000   0.00000   0.00000   0.00000   0.00000
  59       10F+3       -0.00005  -0.00007   0.00100  -0.00138   0.00081
  60       10F-3        0.00000   0.00013  -0.00042  -0.00004  -0.00040
  61 3   H  1S          0.00002  -0.00002   0.00006  -0.00001   0.00534
  62        2S          0.00013  -0.00002  -0.00152  -0.01122   0.00773
  63        3S          0.00011   0.00005  -0.00043  -0.00353  -0.00186
  64        4PX         0.00001   0.00006  -0.00016   0.00079  -0.00007
  65        4PY         0.00001   0.00000  -0.00006  -0.00114   0.00084
  66        4PZ         0.00000   0.00000   0.00000   0.00000   0.00000
  67        5PX         0.00007  -0.00007  -0.00014   0.00312  -0.00060
  68        5PY         0.00009  -0.00011  -0.00083  -0.00455   0.00075
  69        5PZ         0.00000   0.00000   0.00000   0.00000   0.00000
  70        6D 0       -0.00001   0.00001   0.00002   0.00080  -0.00020
  71        6D+1        0.00000   0.00000   0.00000   0.00000   0.00000
  72        6D-1        0.00000   0.00000   0.00000   0.00000   0.00000
  73        6D+2       -0.00002  -0.00003   0.00023   0.00053   0.00016
  74        6D-2        0.00003   0.00004  -0.00011   0.00136  -0.00007
  75 4   H  1S         -0.00002   0.00002  -0.00001  -0.00002   0.00325
  76        2S          0.00009  -0.00015  -0.00051  -0.01162   0.00130
  77        3S          0.00006  -0.00001  -0.00064  -0.00297   0.00099
  78        4PX         0.00000   0.00001  -0.00004  -0.00079   0.00021
  79        4PY        -0.00000  -0.00001  -0.00007   0.00001   0.00018
  80        4PZ         0.00000  -0.00001  -0.00008   0.00113  -0.00022
  81        5PX        -0.00009   0.00003  -0.00003  -0.00327  -0.00025
  82        5PY         0.00001   0.00004  -0.00026   0.00009   0.00098
  83        5PZ        -0.00012   0.00011   0.00021   0.00455  -0.00011
  84        6D 0        0.00003  -0.00003   0.00003  -0.00082   0.00004
  85        6D+1        0.00000  -0.00002  -0.00002   0.00133  -0.00009
  86        6D-1       -0.00000   0.00000   0.00009  -0.00000  -0.00019
  87        6D+2        0.00000  -0.00003  -0.00001  -0.00049  -0.00001
  88        6D-2       -0.00000  -0.00001   0.00001   0.00003   0.00029
  89 5   H  1S         -0.00002   0.00002  -0.00001  -0.00002   0.00325
  90        2S          0.00009  -0.00015  -0.00051  -0.01162   0.00130
  91        3S          0.00006  -0.00001  -0.00064  -0.00297   0.00099
  92        4PX         0.00000   0.00001  -0.00004  -0.00079   0.00021
  93        4PY        -0.00000  -0.00001  -0.00007   0.00001   0.00018
  94        4PZ        -0.00000   0.00001   0.00008  -0.00113   0.00022
  95        5PX        -0.00009   0.00003  -0.00003  -0.00327  -0.00025
  96        5PY         0.00001   0.00004  -0.00026   0.00009   0.00098
  97        5PZ         0.00012  -0.00011  -0.00021  -0.00455   0.00011
  98        6D 0        0.00003  -0.00003   0.00003  -0.00082   0.00004
  99        6D+1       -0.00000   0.00002   0.00002  -0.00133   0.00009
 100        6D-1        0.00000  -0.00000  -0.00009   0.00000   0.00019
 101        6D+2        0.00000  -0.00003  -0.00001  -0.00049  -0.00001
 102        6D-2       -0.00000  -0.00001   0.00001   0.00003   0.00029
 103 6   O  1S          0.00000   0.97313  -0.00056   0.00005  -0.08283
 104        2S          0.00019  -0.01104  -0.00183   0.00034   0.18624
 105        3S         -0.00004   0.05094   0.00083   0.00001   0.05420
 106        4S          0.00021   0.00385  -0.00807  -0.00100   0.08362
 107        5PX         0.00002   0.00066   0.00032  -0.00003   0.02257
 108        5PY         0.00002  -0.00145  -0.00068  -0.00009  -0.04113
 109        5PZ         0.00000   0.00000   0.00000   0.00000   0.00000
 110        6PX         0.00000  -0.00030  -0.00182   0.00024   0.02596
 111        6PY        -0.00023   0.00075   0.00392   0.00013  -0.04400
 112        6PZ         0.00000   0.00000   0.00000   0.00000   0.00000
 113        7PX         0.00023   0.00006  -0.00094   0.00048   0.00637
 114        7PY        -0.00010  -0.00027   0.00281   0.00023  -0.00530
 115        7PZ         0.00000   0.00000   0.00000   0.00000   0.00000
 116        8D 0       -0.00002  -0.00012   0.00006  -0.00003  -0.00172
 117        8D+1        0.00000   0.00000   0.00000   0.00000   0.00000
 118        8D-1        0.00000   0.00000   0.00000   0.00000   0.00000
 119        8D+2        0.00001  -0.00017   0.00003  -0.00005  -0.00188
 120        8D-2       -0.00001  -0.00018   0.00003   0.00003  -0.00274
 121        9D 0       -0.00001   0.00025   0.00122   0.00005  -0.00262
 122        9D+1        0.00000   0.00000   0.00000   0.00000   0.00000
 123        9D-1        0.00000   0.00000   0.00000   0.00000   0.00000
 124        9D+2       -0.00015   0.00028   0.00161   0.00015  -0.00240
 125        9D-2       -0.00003   0.00029   0.00171  -0.00036  -0.00581
 126       10F 0        0.00000   0.00000   0.00000   0.00000   0.00000
 127       10F+1        0.00001   0.00003   0.00013   0.00002  -0.00064
 128       10F-1        0.00001  -0.00006  -0.00029  -0.00002   0.00116
 129       10F+2        0.00000   0.00000   0.00000   0.00000   0.00000
 130       10F-2        0.00000   0.00000   0.00000   0.00000   0.00000
 131       10F+3       -0.00002   0.00004   0.00051  -0.00010  -0.00150
 132       10F-3        0.00005  -0.00001  -0.00019   0.00001  -0.00010
 133 7   O  1S          0.97326   0.00007  -0.00017  -0.00001  -0.16882
 134        2S         -0.01014   0.00018  -0.00032  -0.00008   0.38883
 135        3S          0.05091  -0.00002   0.00044  -0.00003   0.11379
 136        4S          0.00402  -0.00091  -0.00233   0.00139   0.20396
 137        5PX        -0.00109   0.00002  -0.00042   0.00001  -0.04391
 138        5PY        -0.00112  -0.00000   0.00007  -0.00004  -0.03384
 139        5PZ         0.00000   0.00000   0.00000   0.00000   0.00000
 140        6PX         0.00161  -0.00022   0.00094  -0.00015  -0.05434
 141        6PY        -0.00086   0.00010   0.00011   0.00020  -0.03906
 142        6PZ         0.00000   0.00000   0.00000   0.00000   0.00000
 143        7PX         0.00040   0.00015   0.00072  -0.00063  -0.01115
 144        7PY        -0.00105   0.00022   0.00025   0.00032  -0.00738
 145        7PZ         0.00000   0.00000   0.00000   0.00000   0.00000
 146        8D 0       -0.00026  -0.00004  -0.00004  -0.00002  -0.00359
 147        8D+1        0.00000   0.00000   0.00000   0.00000   0.00000
 148        8D-1        0.00000   0.00000   0.00000   0.00000   0.00000
 149        8D+2       -0.00012   0.00001   0.00018  -0.00000   0.00075
 150        8D-2       -0.00015  -0.00004  -0.00002   0.00005  -0.00129
 151        9D 0        0.00022   0.00010   0.00065  -0.00004  -0.00690
 152        9D+1        0.00000   0.00000   0.00000   0.00000   0.00000
 153        9D-1        0.00000   0.00000   0.00000   0.00000   0.00000
 154        9D+2       -0.00076   0.00018  -0.00128   0.00026   0.00364
 155        9D-2       -0.00007   0.00020   0.00038  -0.00034  -0.00205
 156       10F 0        0.00000   0.00000   0.00000   0.00000   0.00000
 157       10F+1       -0.00011   0.00000  -0.00034   0.00002   0.00160
 158       10F-1        0.00006  -0.00001   0.00007  -0.00000   0.00034
 159       10F+2        0.00000   0.00000   0.00000   0.00000   0.00000
 160       10F-2        0.00000   0.00000   0.00000   0.00000   0.00000
 161       10F+3        0.00002  -0.00005   0.00054  -0.00011  -0.00181
 162       10F-3        0.00006  -0.00002  -0.00013   0.00001   0.00105
 163 8   H  1S          0.00035   0.00005  -0.00035  -0.00001   0.07495
 164        2S         -0.00294   0.00057   0.00098   0.00013   0.06422
 165        3S         -0.00047  -0.00012   0.00012   0.00066   0.00537
 166        4PX         0.00005  -0.00001   0.00025  -0.00001  -0.00361
 167        4PY        -0.00040   0.00006   0.00001   0.00003   0.01052
 168        4PZ         0.00000   0.00000   0.00000   0.00000   0.00000
 169        5PX         0.00042  -0.00005  -0.00033  -0.00014  -0.00615
 170        5PY        -0.00158   0.00026   0.00058  -0.00010   0.01136
 171        5PZ         0.00000   0.00000   0.00000   0.00000   0.00000
 172        6D 0        0.00052  -0.00003  -0.00025  -0.00000  -0.00136
 173        6D+1        0.00000   0.00000   0.00000   0.00000   0.00000
 174        6D-1        0.00000   0.00000   0.00000   0.00000   0.00000
 175        6D+2        0.00085  -0.00002  -0.00009   0.00003  -0.00210
 176        6D-2        0.00039   0.00000  -0.00000  -0.00008  -0.00160
                           6         7         8         9        10
                           O         O         O         O         O
     Eigenvalues --    -1.02373  -0.77367  -0.62718  -0.52708  -0.48109
   1 1   C  1S         -0.06670  -0.05760   0.09416  -0.08359   0.00000
   2        2S          0.13710   0.13616  -0.23049   0.20763   0.00000
   3        3S          0.03597   0.03430  -0.06365   0.05504   0.00000
   4        4S          0.03153   0.04498  -0.10391   0.10942   0.00000
   5        5PX        -0.08030  -0.04263  -0.12005  -0.10375   0.00000
   6        5PY         0.09997  -0.09749   0.01636  -0.09816   0.00000
   7        5PZ         0.00000   0.00000   0.00000   0.00000   0.15470
   8        6PX        -0.07478  -0.04407  -0.13681  -0.11540   0.00000
   9        6PY         0.08564  -0.10467   0.01663  -0.13129   0.00000
  10        6PZ         0.00000   0.00000   0.00000   0.00000   0.20054
  11        7PX        -0.00321  -0.00788  -0.00791  -0.04251   0.00000
  12        7PY         0.01024  -0.02603   0.03517  -0.07616   0.00000
  13        7PZ         0.00000   0.00000   0.00000   0.00000   0.07428
  14        8D 0       -0.00541  -0.00161   0.00416  -0.00103   0.00000
  15        8D+1        0.00000   0.00000   0.00000   0.00000  -0.00045
  16        8D-1        0.00000   0.00000   0.00000   0.00000   0.00124
  17        8D+2       -0.01342  -0.00033  -0.00868  -0.00343   0.00000
  18        8D-2       -0.00670   0.00719  -0.00534  -0.00282   0.00000
  19        9D 0       -0.00685  -0.00245   0.00470  -0.00083   0.00000
  20        9D+1        0.00000   0.00000   0.00000   0.00000  -0.00016
  21        9D-1        0.00000   0.00000   0.00000   0.00000  -0.00496
  22        9D+2       -0.00931  -0.00250  -0.01423  -0.00726   0.00000
  23        9D-2       -0.00096   0.00578  -0.00623  -0.00545   0.00000
  24       10F 0        0.00000   0.00000   0.00000   0.00000  -0.00638
  25       10F+1        0.00182   0.00036   0.00261   0.00217   0.00000
  26       10F-1       -0.00248   0.00172  -0.00023   0.00331   0.00000
  27       10F+2        0.00000   0.00000   0.00000   0.00000   0.00009
  28       10F-2        0.00000   0.00000   0.00000   0.00000  -0.00076
  29       10F+3        0.00531   0.00111  -0.00463   0.00169   0.00000
  30       10F-3       -0.00171  -0.00029   0.00003  -0.00179   0.00000
  31 2   C  1S         -0.01115  -0.17638  -0.03109   0.04610   0.00000
  32        2S          0.02222   0.39283   0.07099  -0.10468   0.00000
  33        3S          0.00597   0.09277   0.01721  -0.02721   0.00000
  34        4S          0.00701   0.15448   0.07623  -0.11599   0.00000
  35        5PX        -0.00108   0.01502  -0.03328   0.10851   0.00000
  36        5PY         0.01104   0.01219  -0.02290   0.13555   0.00000
  37        5PZ         0.00000   0.00000   0.00000   0.00000   0.18668
  38        6PX        -0.00646   0.01824  -0.03825   0.12151   0.00000
  39        6PY         0.00602   0.02109  -0.02785   0.15291   0.00000
  40        6PZ         0.00000   0.00000   0.00000   0.00000   0.20957
  41        7PX        -0.00091   0.00201  -0.00469   0.03469   0.00000
  42        7PY         0.00073  -0.00297   0.00500   0.04870   0.00000
  43        7PZ         0.00000   0.00000   0.00000   0.00000   0.10426
  44        8D 0        0.00004  -0.00157   0.00165  -0.00681   0.00000
  45        8D+1        0.00000   0.00000   0.00000   0.00000  -0.00657
  46        8D-1        0.00000   0.00000   0.00000   0.00000   0.00361
  47        8D+2       -0.00152  -0.00056  -0.00041  -0.00341   0.00000
  48        8D-2       -0.00019   0.00253  -0.00316   0.01048   0.00000
  49        9D 0        0.00115  -0.00109   0.00068  -0.00935   0.00000
  50        9D+1        0.00000   0.00000   0.00000   0.00000   0.00300
  51        9D-1        0.00000   0.00000   0.00000   0.00000   0.00966
  52        9D+2        0.00095   0.00099  -0.00428  -0.00431   0.00000
  53        9D-2       -0.00225   0.00705  -0.00641   0.01154   0.00000
  54       10F 0        0.00000   0.00000   0.00000   0.00000  -0.00180
  55       10F+1       -0.00018  -0.00434  -0.00048   0.00013   0.00000
  56       10F-1       -0.00023  -0.00148   0.00005  -0.00211   0.00000
  57       10F+2        0.00000   0.00000   0.00000   0.00000  -0.00107
  58       10F-2        0.00000   0.00000   0.00000   0.00000   0.00227
  59       10F+3        0.00019  -0.00492  -0.00103  -0.00191   0.00000
  60       10F-3       -0.00168   0.00154  -0.00095   0.00072   0.00000
  61 3   H  1S         -0.00017   0.07623   0.01955  -0.05915   0.00000
  62        2S         -0.00301   0.08796   0.01802  -0.07380   0.00000
  63        3S          0.00011   0.00776   0.00984  -0.01828   0.00000
  64        4PX        -0.00026  -0.00363  -0.00143   0.00608   0.00000
  65        4PY        -0.00035   0.00668   0.00056  -0.00209   0.00000
  66        4PZ         0.00000   0.00000   0.00000   0.00000   0.00407
  67        5PX        -0.00126  -0.00112   0.00200   0.01049   0.00000
  68        5PY        -0.00158   0.00821  -0.00082   0.00413   0.00000
  69        5PZ         0.00000   0.00000   0.00000   0.00000   0.01060
  70        6D 0       -0.00004  -0.00116  -0.00018   0.00019   0.00000
  71        6D+1        0.00000   0.00000   0.00000   0.00000  -0.00085
  72        6D-1        0.00000   0.00000   0.00000   0.00000   0.00185
  73        6D+2        0.00050  -0.00129   0.00039  -0.00170   0.00000
  74        6D-2       -0.00022  -0.00086  -0.00013   0.00186   0.00000
  75 4   H  1S          0.00401   0.07270   0.02705  -0.06673   0.10177
  76        2S          0.00075   0.07617   0.02953  -0.08237   0.14478
  77        3S          0.00033   0.00601   0.00621  -0.02698   0.03870
  78        4PX         0.00028   0.00448   0.00105  -0.00146   0.00706
  79        4PY         0.00040   0.00035  -0.00036   0.00325   0.00053
  80        4PZ        -0.00036  -0.00564  -0.00226   0.00561  -0.00518
  81        5PX        -0.00009   0.00371  -0.00026   0.00249   0.00946
  82        5PY         0.00117   0.00137  -0.00076   0.00839  -0.00039
  83        5PZ         0.00129  -0.00310  -0.00174   0.00570  -0.00314
  84        6D 0       -0.00024   0.00043   0.00036  -0.00170  -0.00017
  85        6D+1       -0.00004  -0.00144  -0.00031   0.00045  -0.00185
  86        6D-1       -0.00035  -0.00029   0.00008  -0.00149  -0.00014
  87        6D+2       -0.00013   0.00058  -0.00010   0.00020   0.00116
  88        6D-2        0.00033   0.00041  -0.00005   0.00134   0.00031
  89 5   H  1S          0.00401   0.07270   0.02705  -0.06673  -0.10177
  90        2S          0.00075   0.07617   0.02953  -0.08237  -0.14478
  91        3S          0.00033   0.00601   0.00621  -0.02698  -0.03870
  92        4PX         0.00028   0.00448   0.00105  -0.00146  -0.00706
  93        4PY         0.00040   0.00035  -0.00036   0.00325  -0.00053
  94        4PZ         0.00036   0.00564   0.00226  -0.00561  -0.00518
  95        5PX        -0.00009   0.00371  -0.00026   0.00249  -0.00946
  96        5PY         0.00117   0.00137  -0.00076   0.00839   0.00039
  97        5PZ        -0.00129   0.00310   0.00174  -0.00570  -0.00314
  98        6D 0       -0.00024   0.00043   0.00036  -0.00170   0.00017
  99        6D+1        0.00004   0.00144   0.00031  -0.00045  -0.00185
 100        6D-1        0.00035   0.00029  -0.00008   0.00149  -0.00014
 101        6D+2       -0.00013   0.00058  -0.00010   0.00020  -0.00116
 102        6D-2        0.00033   0.00041  -0.00005   0.00134  -0.00031
 103 6   O  1S         -0.16798   0.04464  -0.05723   0.03269   0.00000
 104        2S          0.38450  -0.10824   0.14044  -0.08269   0.00000
 105        3S          0.11249  -0.03244   0.04295  -0.02575   0.00000
 106        4S          0.20897  -0.07395   0.11854  -0.06841   0.00000
 107        5PX         0.02802  -0.01753  -0.04945  -0.04238   0.00000
 108        5PY        -0.07479  -0.00669   0.02087  -0.07787   0.00000
 109        5PZ         0.00000   0.00000   0.00000   0.00000   0.10865
 110        6PX         0.03247  -0.02208  -0.05721  -0.05225   0.00000
 111        6PY        -0.08723  -0.00719   0.02093  -0.09366   0.00000
 112        6PZ         0.00000   0.00000   0.00000   0.00000   0.13210
 113        7PX         0.00355  -0.00590  -0.03689  -0.02160   0.00000
 114        7PY        -0.01863  -0.00763   0.01426  -0.05583   0.00000
 115        7PZ         0.00000   0.00000   0.00000   0.00000   0.07821
 116        8D 0       -0.00283   0.00020   0.00084  -0.00085   0.00000
 117        8D+1        0.00000   0.00000   0.00000   0.00000   0.00186
 118        8D-1        0.00000   0.00000   0.00000   0.00000  -0.00425
 119        8D+2       -0.00437  -0.00059  -0.00112  -0.00369   0.00000
 120        8D-2       -0.00417   0.00152   0.00202   0.00133   0.00000
 121        9D 0       -0.00561  -0.00040   0.00184  -0.00335   0.00000
 122        9D+1        0.00000   0.00000   0.00000   0.00000   0.00481
 123        9D-1        0.00000   0.00000   0.00000   0.00000  -0.01306
 124        9D+2       -0.00978  -0.00234  -0.00350  -0.01142   0.00000
 125        9D-2       -0.00870   0.00402   0.00651   0.00270   0.00000
 126       10F 0        0.00000   0.00000   0.00000   0.00000  -0.00149
 127       10F+1       -0.00078   0.00028   0.00051   0.00020   0.00000
 128       10F-1        0.00197   0.00004  -0.00025   0.00064   0.00000
 129       10F+2        0.00000   0.00000   0.00000   0.00000  -0.00174
 130       10F-2        0.00000   0.00000   0.00000   0.00000  -0.00176
 131       10F+3       -0.00281   0.00091   0.00090   0.00012   0.00000
 132       10F-3        0.00138   0.00100   0.00175   0.00291   0.00000
 133 7   O  1S          0.10567   0.03218  -0.02095   0.04440   0.00000
 134        2S         -0.24649  -0.07864   0.04359  -0.11599   0.00000
 135        3S         -0.07221  -0.02371   0.01697  -0.03437   0.00000
 136        4S         -0.14628  -0.06595   0.01761  -0.14943   0.00000
 137        5PX         0.00609  -0.02449   0.20049  -0.00951   0.00000
 138        5PY         0.03960  -0.00293  -0.16364  -0.14800   0.00000
 139        5PZ         0.00000   0.00000   0.00000   0.00000   0.12646
 140        6PX         0.01629  -0.02739   0.23543  -0.01102   0.00000
 141        6PY         0.04384  -0.00335  -0.18297  -0.17003   0.00000
 142        6PZ         0.00000   0.00000   0.00000   0.00000   0.15338
 143        7PX         0.00845  -0.01299   0.10820  -0.02115   0.00000
 144        7PY         0.00427  -0.00034  -0.07831  -0.07911   0.00000
 145        7PZ         0.00000   0.00000   0.00000   0.00000   0.10206
 146        8D 0        0.00193  -0.00002   0.00034  -0.00154   0.00000
 147        8D+1        0.00000   0.00000   0.00000   0.00000  -0.00286
 148        8D-1        0.00000   0.00000   0.00000   0.00000  -0.00123
 149        8D+2        0.00089   0.00103  -0.01012  -0.00280   0.00000
 150        8D-2        0.00023   0.00144  -0.00137   0.00217   0.00000
 151        9D 0        0.00442  -0.00021   0.00326  -0.00227   0.00000
 152        9D+1        0.00000   0.00000   0.00000   0.00000  -0.01195
 153        9D-1        0.00000   0.00000   0.00000   0.00000  -0.00406
 154        9D+2       -0.00423   0.00251  -0.02141  -0.00321   0.00000
 155        9D-2       -0.00095   0.00484  -0.00081   0.01137   0.00000
 156       10F 0        0.00000   0.00000   0.00000   0.00000  -0.00205
 157       10F+1       -0.00086   0.00026  -0.00324  -0.00029   0.00000
 158       10F-1       -0.00044   0.00016   0.00161   0.00128   0.00000
 159       10F+2        0.00000   0.00000   0.00000   0.00000   0.00145
 160       10F-2        0.00000   0.00000   0.00000   0.00000  -0.00051
 161       10F+3        0.00169   0.00001   0.00161  -0.00016   0.00000
 162       10F-3        0.00019  -0.00090  -0.00171  -0.00174   0.00000
 163 8   H  1S         -0.05945  -0.01527   0.13352   0.06339   0.00000
 164        2S         -0.06202  -0.00867   0.18611   0.11459   0.00000
 165        3S         -0.00655  -0.00429   0.04436   0.01690   0.00000
 166        4PX         0.00270  -0.00075   0.00172  -0.00304   0.00000
 167        4PY        -0.00858  -0.00249   0.01450   0.00483   0.00000
 168        4PZ         0.00000   0.00000   0.00000   0.00000   0.00376
 169        5PX         0.00367  -0.00413   0.00027  -0.00891   0.00000
 170        5PY        -0.01201  -0.00184   0.02326   0.01340   0.00000
 171        5PZ         0.00000   0.00000   0.00000   0.00000   0.01268
 172        6D 0        0.00110  -0.00006  -0.00335  -0.00173   0.00000
 173        6D+1        0.00000   0.00000   0.00000   0.00000  -0.00110
 174        6D-1        0.00000   0.00000   0.00000   0.00000   0.00193
 175        6D+2        0.00223   0.00118  -0.00547  -0.00111   0.00000
 176        6D-2        0.00110   0.00011  -0.00053  -0.00139   0.00000
                          11        12        13        14        15
                           O         O         O         O         O
     Eigenvalues --    -0.47828  -0.42519  -0.40778  -0.39394  -0.32612
   1 1   C  1S          0.02554   0.02827   0.00000   0.00996   0.00000
   2        2S         -0.06074  -0.06126   0.00000  -0.01592   0.00000
   3        3S         -0.01798  -0.02195   0.00000  -0.01008   0.00000
   4        4S         -0.02089   0.02567   0.00000   0.02155   0.00000
   5        5PX         0.09746   0.04752   0.00000  -0.09271   0.00000
   6        5PY        -0.07709  -0.15266   0.00000  -0.09795   0.00000
   7        5PZ         0.00000   0.00000   0.11077   0.00000   0.09009
   8        6PX         0.10489   0.03792   0.00000  -0.10677   0.00000
   9        6PY        -0.07400  -0.14442   0.00000  -0.09872   0.00000
  10        6PZ         0.00000   0.00000   0.13861   0.00000   0.11557
  11        7PX        -0.01024  -0.00861   0.00000   0.01245   0.00000
  12        7PY         0.02678   0.02529   0.00000   0.03677   0.00000
  13        7PZ         0.00000   0.00000   0.08348   0.00000   0.07408
  14        8D 0        0.00068   0.00142   0.00000   0.00135   0.00000
  15        8D+1        0.00000   0.00000   0.01025   0.00000  -0.01539
  16        8D-1        0.00000   0.00000   0.00920   0.00000   0.01726
  17        8D+2       -0.00321   0.01469   0.00000   0.00048   0.00000
  18        8D-2       -0.00345   0.00569   0.00000   0.01187   0.00000
  19        9D 0       -0.00527  -0.00532   0.00000  -0.00272   0.00000
  20        9D+1        0.00000   0.00000   0.02100   0.00000  -0.03389
  21        9D-1        0.00000   0.00000   0.01042   0.00000   0.03265
  22        9D+2       -0.03083   0.00876   0.00000   0.00058   0.00000
  23        9D-2       -0.02241  -0.00764   0.00000   0.01369   0.00000
  24       10F 0        0.00000   0.00000  -0.00473   0.00000  -0.00116
  25       10F+1       -0.00055  -0.00020   0.00000   0.00126   0.00000
  26       10F-1        0.00118   0.00116   0.00000   0.00046   0.00000
  27       10F+2        0.00000   0.00000   0.00246   0.00000  -0.00677
  28       10F-2        0.00000   0.00000  -0.00432   0.00000  -0.00247
  29       10F+3       -0.00257  -0.00165   0.00000   0.00280   0.00000
  30       10F-3        0.00074  -0.00101   0.00000   0.00724   0.00000
  31 2   C  1S          0.00358  -0.00233   0.00000  -0.01034   0.00000
  32        2S         -0.00935   0.00924   0.00000   0.02915   0.00000
  33        3S         -0.00318   0.00104   0.00000   0.00489   0.00000
  34        4S          0.01925   0.03094   0.00000   0.09609   0.00000
  35        5PX         0.13133  -0.09110   0.00000   0.15027   0.00000
  36        5PY        -0.11609   0.12997   0.00000   0.02964   0.00000
  37        5PZ         0.00000   0.00000  -0.16972   0.00000  -0.03913
  38        6PX         0.14138  -0.10268   0.00000   0.17473   0.00000
  39        6PY        -0.12492   0.15768   0.00000   0.04545   0.00000
  40        6PZ         0.00000   0.00000  -0.18752   0.00000  -0.06511
  41        7PX         0.07857  -0.03472   0.00000   0.08982   0.00000
  42        7PY        -0.04261   0.07889   0.00000   0.04341   0.00000
  43        7PZ         0.00000   0.00000  -0.09077   0.00000  -0.09003
  44        8D 0       -0.00549   0.00424   0.00000  -0.00758   0.00000
  45        8D+1        0.00000   0.00000   0.01143   0.00000   0.00431
  46        8D-1        0.00000   0.00000   0.00163   0.00000   0.00257
  47        8D+2        0.00005   0.00425   0.00000  -0.00563   0.00000
  48        8D-2       -0.00496   0.00842   0.00000   0.00261   0.00000
  49        9D 0       -0.00264   0.00803   0.00000  -0.00625   0.00000
  50        9D+1        0.00000   0.00000   0.00503   0.00000   0.01701
  51        9D-1        0.00000   0.00000   0.00024   0.00000   0.00181
  52        9D+2       -0.00021   0.00199   0.00000  -0.00424   0.00000
  53        9D-2       -0.00091   0.01399   0.00000   0.00839   0.00000
  54       10F 0        0.00000   0.00000  -0.00004   0.00000  -0.00122
  55       10F+1       -0.00097  -0.00071   0.00000  -0.00101   0.00000
  56       10F-1        0.00041  -0.00044   0.00000  -0.00199   0.00000
  57       10F+2        0.00000   0.00000   0.00055   0.00000  -0.00184
  58       10F-2        0.00000   0.00000   0.00025   0.00000   0.00092
  59       10F+3        0.00119  -0.00169   0.00000  -0.00282   0.00000
  60       10F-3        0.00292   0.00179   0.00000   0.00078   0.00000
  61 3   H  1S          0.11511  -0.11823   0.00000   0.04783   0.00000
  62        2S          0.17329  -0.16900   0.00000   0.08038   0.00000
  63        3S          0.07263  -0.08112   0.00000   0.02335   0.00000
  64        4PX        -0.00397   0.00498   0.00000   0.00036   0.00000
  65        4PY         0.00844  -0.00662   0.00000   0.00491   0.00000
  66        4PZ         0.00000   0.00000  -0.00361   0.00000  -0.00138
  67        5PX         0.00570   0.00131   0.00000   0.00072   0.00000
  68        5PY         0.01443  -0.00117   0.00000   0.00835   0.00000
  69        5PZ         0.00000   0.00000  -0.00998   0.00000  -0.00309
  70        6D 0       -0.00138   0.00087   0.00000  -0.00079   0.00000
  71        6D+1        0.00000   0.00000   0.00146   0.00000   0.00001
  72        6D-1        0.00000   0.00000  -0.00107   0.00000  -0.00062
  73        6D+2       -0.00184  -0.00022   0.00000  -0.00230   0.00000
  74        6D-2       -0.00094   0.00176   0.00000  -0.00018   0.00000
  75 4   H  1S         -0.05300   0.04217  -0.10419  -0.05826  -0.02698
  76        2S         -0.08313   0.05685  -0.16307  -0.09683  -0.00849
  77        3S         -0.02355   0.03165  -0.06926  -0.04093   0.01918
  78        4PX        -0.00073   0.00044  -0.00588  -0.00011  -0.00141
  79        4PY        -0.00261   0.00293   0.00019   0.00103   0.00024
  80        4PZ         0.00521  -0.00307   0.00514   0.00496   0.00063
  81        5PX        -0.00153  -0.00464  -0.00976   0.00419   0.00809
  82        5PY        -0.00776   0.00632   0.00371   0.00369   0.00481
  83        5PZ         0.00657  -0.00593   0.00351   0.00886  -0.00814
  84        6D 0       -0.00125   0.00119  -0.00027  -0.00186   0.00023
  85        6D+1        0.00083  -0.00023   0.00190   0.00016  -0.00052
  86        6D-1        0.00127  -0.00101  -0.00015  -0.00065  -0.00007
  87        6D+2        0.00023  -0.00010  -0.00101   0.00008  -0.00008
  88        6D-2       -0.00090   0.00076   0.00046   0.00030   0.00039
  89 5   H  1S         -0.05300   0.04217   0.10419  -0.05826   0.02698
  90        2S         -0.08313   0.05685   0.16307  -0.09683   0.00849
  91        3S         -0.02355   0.03165   0.06926  -0.04093  -0.01918
  92        4PX        -0.00073   0.00044   0.00588  -0.00011   0.00141
  93        4PY        -0.00261   0.00293  -0.00019   0.00103  -0.00024
  94        4PZ        -0.00521   0.00307   0.00514  -0.00496   0.00063
  95        5PX        -0.00153  -0.00464   0.00976   0.00419  -0.00809
  96        5PY        -0.00776   0.00632  -0.00371   0.00369  -0.00481
  97        5PZ        -0.00657   0.00593   0.00351  -0.00886  -0.00814
  98        6D 0       -0.00125   0.00119   0.00027  -0.00186  -0.00023
  99        6D+1       -0.00083   0.00023   0.00190  -0.00016  -0.00052
 100        6D-1       -0.00127   0.00101  -0.00015   0.00065  -0.00007
 101        6D+2        0.00023  -0.00010   0.00101   0.00008   0.00008
 102        6D-2       -0.00090   0.00076  -0.00046   0.00030  -0.00039
 103 6   O  1S         -0.06369  -0.05600   0.00000  -0.01374   0.00000
 104        2S          0.15709   0.13992   0.00000   0.03682   0.00000
 105        3S          0.04957   0.04426   0.00000   0.01126   0.00000
 106        4S          0.14200   0.14307   0.00000   0.02476   0.00000
 107        5PX        -0.02013  -0.13298   0.00000  -0.10500   0.00000
 108        5PY         0.15049   0.19896   0.00000   0.05098   0.00000
 109        5PZ         0.00000   0.00000   0.10902   0.00000   0.26436
 110        6PX        -0.02269  -0.15666   0.00000  -0.12391   0.00000
 111        6PY         0.17555   0.23159   0.00000   0.05997   0.00000
 112        6PZ         0.00000   0.00000   0.13321   0.00000   0.31636
 113        7PX        -0.01854  -0.10780   0.00000  -0.09416   0.00000
 114        7PY         0.11943   0.15879   0.00000   0.03985   0.00000
 115        7PZ         0.00000   0.00000   0.08315   0.00000   0.23948
 116        8D 0        0.00306   0.00429   0.00000   0.00153   0.00000
 117        8D+1        0.00000   0.00000   0.00190   0.00000   0.00247
 118        8D-1        0.00000   0.00000  -0.00338   0.00000  -0.00583
 119        8D+2        0.00424   0.00391   0.00000  -0.00014   0.00000
 120        8D-2        0.00203   0.00623   0.00000   0.00386   0.00000
 121        9D 0        0.00794   0.01101   0.00000   0.00365   0.00000
 122        9D+1        0.00000   0.00000   0.00572   0.00000   0.00666
 123        9D-1        0.00000   0.00000  -0.01014   0.00000  -0.01832
 124        9D+2        0.01110   0.01018   0.00000  -0.00054   0.00000
 125        9D-2        0.00424   0.01778   0.00000   0.01087   0.00000
 126       10F 0        0.00000   0.00000  -0.00108   0.00000  -0.00167
 127       10F+1        0.00035   0.00096   0.00000   0.00038   0.00000
 128       10F-1       -0.00130  -0.00179   0.00000  -0.00066   0.00000
 129       10F+2        0.00000   0.00000  -0.00109   0.00000  -0.00268
 130       10F-2        0.00000   0.00000  -0.00202   0.00000  -0.00264
 131       10F+3        0.00168   0.00436   0.00000   0.00210   0.00000
 132       10F-3       -0.00198  -0.00034   0.00000   0.00132   0.00000
 133 7   O  1S          0.03890  -0.00666   0.00000  -0.05219   0.00000
 134        2S         -0.09856   0.01999   0.00000   0.13365   0.00000
 135        3S         -0.03149   0.00491   0.00000   0.04175   0.00000
 136        4S         -0.09644   0.03984   0.00000   0.19891   0.00000
 137        5PX        -0.10434  -0.07941   0.00000   0.15958   0.00000
 138        5PY        -0.09003   0.00680   0.00000   0.20856   0.00000
 139        5PZ         0.00000   0.00000   0.22187   0.00000  -0.24341
 140        6PX        -0.12690  -0.09890   0.00000   0.19050   0.00000
 141        6PY        -0.10335   0.00548   0.00000   0.24091   0.00000
 142        6PZ         0.00000   0.00000   0.26785   0.00000  -0.28886
 143        7PX        -0.09934  -0.06269   0.00000   0.16263   0.00000
 144        7PY        -0.06161  -0.00988   0.00000   0.13792   0.00000
 145        7PZ         0.00000   0.00000   0.19505   0.00000  -0.24967
 146        8D 0       -0.00208  -0.00038   0.00000   0.00399   0.00000
 147        8D+1        0.00000   0.00000  -0.00328   0.00000   0.00105
 148        8D-1        0.00000   0.00000  -0.00215   0.00000   0.00313
 149        8D+2        0.00027   0.00239   0.00000   0.00180   0.00000
 150        8D-2        0.00257   0.00203   0.00000  -0.00126   0.00000
 151        9D 0       -0.00643  -0.00229   0.00000   0.00809   0.00000
 152        9D+1        0.00000   0.00000  -0.01379   0.00000   0.00591
 153        9D-1        0.00000   0.00000  -0.00708   0.00000   0.01079
 154        9D+2        0.00534   0.00732   0.00000  -0.00108   0.00000
 155        9D-2        0.00887   0.00617   0.00000  -0.00816   0.00000
 156       10F 0        0.00000   0.00000  -0.00278   0.00000   0.00200
 157       10F+1        0.00152   0.00102   0.00000  -0.00173   0.00000
 158       10F-1        0.00062   0.00005   0.00000  -0.00072   0.00000
 159       10F+2        0.00000   0.00000   0.00153   0.00000  -0.00024
 160       10F-2        0.00000   0.00000  -0.00113   0.00000   0.00061
 161       10F+3       -0.00143  -0.00122   0.00000   0.00162   0.00000
 162       10F-3       -0.00040  -0.00048   0.00000  -0.00156   0.00000
 163 8   H  1S          0.02398  -0.02307   0.00000  -0.07998   0.00000
 164        2S          0.05155  -0.05051   0.00000  -0.15805   0.00000
 165        3S          0.00946  -0.02150   0.00000  -0.02722   0.00000
 166        4PX        -0.00478  -0.00198   0.00000   0.00735   0.00000
 167        4PY         0.00010  -0.00122   0.00000  -0.00512   0.00000
 168        4PZ         0.00000   0.00000   0.00642   0.00000  -0.00705
 169        5PX        -0.01591  -0.00064   0.00000   0.01366   0.00000
 170        5PY        -0.00441  -0.00470   0.00000  -0.01172   0.00000
 171        5PZ         0.00000   0.00000   0.02127   0.00000  -0.02689
 172        6D 0       -0.00039   0.00133   0.00000   0.00102   0.00000
 173        6D+1        0.00000   0.00000  -0.00097   0.00000   0.00067
 174        6D-1        0.00000   0.00000   0.00340   0.00000  -0.00353
 175        6D+2        0.00110   0.00078   0.00000   0.00143   0.00000
 176        6D-2       -0.00106  -0.00047   0.00000   0.00368   0.00000
                          16        17        18        19        20
                           O         V         V         V         V
     Eigenvalues --    -0.27945  -0.00905   0.01919   0.07258   0.10880
   1 1   C  1S         -0.01503   0.00000   0.00455   0.01720   0.02151
   2        2S          0.04881   0.00000  -0.01935  -0.04618  -0.06750
   3        3S          0.01114   0.00000  -0.00265   0.00692  -0.02378
   4        4S          0.02001   0.00000   0.11006  -1.22918   0.21102
   5        5PX        -0.00785   0.00000  -0.03355   0.00548  -0.08685
   6        5PY        -0.04184   0.00000  -0.00852   0.03370   0.00273
   7        5PZ         0.00000  -0.29156   0.00000   0.00000   0.00000
   8        6PX         0.00539   0.00000  -0.02258   0.00353  -0.15964
   9        6PY        -0.04598   0.00000  -0.04957   0.05947  -0.04251
  10        6PZ         0.00000  -0.42927   0.00000   0.00000   0.00000
  11        7PX         0.06143   0.00000   0.14852  -0.06974   0.02655
  12        7PY         0.02773   0.00000  -0.14819   0.22360  -0.36997
  13        7PZ         0.00000  -0.37705   0.00000   0.00000   0.00000
  14        8D 0        0.00209   0.00000  -0.00479  -0.01055  -0.00614
  15        8D+1        0.00000   0.00069   0.00000   0.00000   0.00000
  16        8D-1        0.00000   0.01622   0.00000   0.00000   0.00000
  17        8D+2       -0.02257   0.00000  -0.00139   0.00955   0.01138
  18        8D-2        0.02403   0.00000  -0.00613   0.00631   0.00610
  19        9D 0        0.00748   0.00000  -0.02912   0.04102  -0.04760
  20        9D+1        0.00000  -0.01653   0.00000   0.00000   0.00000
  21        9D-1        0.00000   0.02911   0.00000   0.00000   0.00000
  22        9D+2       -0.02767   0.00000  -0.00047  -0.01174   0.01324
  23        9D-2        0.02953   0.00000   0.03181   0.00205   0.02208
  24       10F 0        0.00000  -0.00219   0.00000   0.00000   0.00000
  25       10F+1       -0.00135   0.00000  -0.00111   0.00466  -0.00057
  26       10F-1       -0.00033   0.00000   0.00482   0.00224   0.00324
  27       10F+2        0.00000   0.00111   0.00000   0.00000   0.00000
  28       10F-2        0.00000  -0.00023   0.00000   0.00000   0.00000
  29       10F+3       -0.00423   0.00000   0.00443  -0.00951  -0.00074
  30       10F-3       -0.00728   0.00000  -0.00528   0.00372  -0.00441
  31 2   C  1S         -0.02522   0.00000  -0.05854  -0.06675   0.01797
  32        2S          0.06879   0.00000   0.17938   0.21227  -0.06187
  33        3S          0.01538   0.00000   0.04930   0.05059  -0.00840
  34        4S          0.16108   0.00000   1.62816   2.60746  -1.65012
  35        5PX         0.03858   0.00000   0.01898  -0.09745  -0.05825
  36        5PY         0.10038   0.00000  -0.06383   0.03583   0.14182
[...]
  13        7PZ         0.14908
  14        8D 0        0.00364
  15        8D+1        0.00631
  16        8D-1        0.00799
  17        8D+2        0.01981
  18        8D-2        0.01970
  19        9D 0        0.00891
  20        9D+1        0.03995
  21        9D-1        0.03652
  22        9D+2        0.06122
  23        9D-2        0.05791
  24       10F 0        0.00285
  25       10F+1        0.00114
  26       10F-1        0.00118
  27       10F+2        0.00342
  28       10F-2        0.00151
  29       10F+3        0.00590
  30       10F-3        0.00644
  31 2   C  1S          1.96034
  32        2S          0.78930
  33        3S          0.17584
  34        4S          0.31973
  35        5PX         0.29707
  36        5PY         0.28712
  37        5PZ         0.30374
  38        6PX         0.51428
  39        6PY         0.50384
  40        6PZ         0.52061
  41        7PX         0.19199
  42        7PY         0.14479
  43        7PZ         0.22892
  44        8D 0        0.00279
  45        8D+1        0.00371
  46        8D-1        0.00045
  47        8D+2        0.00179
  48        8D-2        0.00438
  49        9D 0        0.00433
  50        9D+1        0.00456
  51        9D-1        0.00299
  52        9D+2        0.00272
  53        9D-2        0.01027
  54       10F 0        0.00016
  55       10F+1        0.00080
  56       10F-1        0.00035
  57       10F+2        0.00000
  58       10F-2        0.00022
  59       10F+3        0.00091
  60       10F-3        0.00077
  61 3   H  1S          0.27286
  62        2S          0.49885
  63        3S          0.11697
  64        4PX         0.00221
  65        4PY         0.00508
  66        4PZ         0.00120
  67        5PX         0.00817
  68        5PY         0.00939
  69        5PZ         0.01052
  70        6D 0        0.00020
  71        6D+1        0.00025
  72        6D-1        0.00061
  73        6D+2        0.00090
  74        6D-2        0.00054
  75 4   H  1S          0.26959
  76        2S          0.47825
  77        3S          0.09435
  78        4PX         0.00312
  79        4PY         0.00112
  80        4PZ         0.00449
  81        5PX         0.00944
  82        5PY         0.01003
  83        5PZ         0.00647
  84        6D 0        0.00078
  85        6D+1        0.00050
  86        6D-1        0.00054
  87        6D+2        0.00025
  88        6D-2        0.00043
  89 5   H  1S          0.26959
  90        2S          0.47825
  91        3S          0.09435
  92        4PX         0.00312
  93        4PY         0.00112
  94        4PZ         0.00449
  95        5PX         0.00944
  96        5PY         0.01003
  97        5PZ         0.00647
  98        6D 0        0.00078
  99        6D+1        0.00050
 100        6D-1        0.00054
 101        6D+2        0.00025
 102        6D-2        0.00043
 103 6   O  1S          1.95626
 104        2S          0.98285
 105        3S          0.25403
 106        4S          0.53948
 107        5PX         0.49231
 108        5PY         0.42509
 109        5PZ         0.37635
 110        6PX         0.77226
 111        6PY         0.67756
 112        6PZ         0.61809
 113        7PX         0.46396
 114        7PY         0.31018
 115        7PZ         0.38227
 116        8D 0        0.00058
 117        8D+1        0.00013
 118        8D-1        0.00094
 119        8D+2        0.00137
 120        8D-2        0.00122
 121        9D 0        0.00263
 122        9D+1        0.00122
 123        9D-1        0.00961
 124        9D+2        0.00821
 125        9D-2        0.00821
 126       10F 0        0.00021
 127       10F+1        0.00006
 128       10F-1        0.00025
 129       10F+2        0.00032
 130       10F-2        0.00023
 131       10F+3        0.00067
 132       10F-3        0.00063
 133 7   O  1S          1.95623
 134        2S          0.97658
 135        3S          0.25119
 136        4S          0.53326
 137        5PX         0.40893
 138        5PY         0.40980
 139        5PZ         0.48491
 140        6PX         0.67634
 141        6PY         0.65500
 142        6PZ         0.76487
 143        7PX         0.30765
 144        7PY         0.26608
 145        7PZ         0.48933
 146        8D 0        0.00053
 147        8D+1        0.00033
 148        8D-1        0.00012
 149        8D+2        0.00179
 150        8D-2        0.00028
 151        9D 0        0.00304
 152        9D+1        0.00498
 153        9D-1        0.00105
 154        9D+2        0.01106
 155        9D-2        0.00337
 156       10F 0        0.00021
 157       10F+1        0.00033
 158       10F-1        0.00020
 159       10F+2        0.00010
 160       10F-2        0.00004
 161       10F+3        0.00031
 162       10F-3        0.00031
 163 8   H  1S          0.26111
 164        2S          0.40008
 165        3S          0.04635
 166        4PX         0.00371
 167        4PY         0.01266
 168        4PZ         0.00397
 169        5PX         0.01824
 170        5PY         0.01631
 171        5PZ         0.03312
 172        6D 0        0.00060
 173        6D+1        0.00015
 174        6D-1        0.00290
 175        6D+2        0.00229
 176        6D-2        0.00193
          Condensed to atoms (all electrons):
               1          2          3          4          5          6
     1  C    4.323172   0.317079  -0.022837  -0.016052  -0.016052   0.779190
     2  C    0.317079   4.990279   0.378349   0.382695   0.382695  -0.084056
     3  H   -0.022837   0.378349   0.619552  -0.026944  -0.026944   0.004405
     4  H   -0.016052   0.382695  -0.026944   0.554443  -0.016647   0.000337
     5  H   -0.016052   0.382695  -0.026944  -0.016647   0.554443   0.000337
     6  O    0.779190  -0.084056   0.004405   0.000337   0.000337   7.671890
     7  O    0.394688  -0.090299   0.003477   0.001455   0.001455  -0.091386
     8  H   -0.023149   0.002018  -0.001323   0.000070   0.000070   0.006423
               7          8
     1  C    0.394688  -0.023149
     2  C   -0.090299   0.002018
     3  H    0.003477  -0.001323
     4  H    0.001455   0.000070
     5  H    0.001455   0.000070
     6  O   -0.091386   0.006423
     7  O    7.675742   0.313059
     8  H    0.313059   0.506245
 Mulliken charges:
               1
     1  C    0.263959
     2  C   -0.278760
     3  H    0.072264
     4  H    0.120642
     5  H    0.120642
     6  O   -0.287141
     7  O   -0.208193
     8  H    0.196587
 Sum of Mulliken charges =  -0.00000
 Mulliken charges with hydrogens summed into heavy atoms:
               1
     1  C    0.263959
     2  C    0.034788
     6  O   -0.287141
     7  O   -0.011607
 Electronic spatial extent (au):  <R**2>=            253.4000
 Charge=             -0.0000 electrons
 Dipole moment (field-independent basis, Debye):
    X=             -0.0532    Y=             -4.2630    Z=              0.0000  Tot=              4.2634
 Quadrupole moment (field-independent basis, Debye-Ang):
   XX=            -23.0223   YY=            -24.7075   ZZ=            -22.8405
   XY=             -0.8939   XZ=             -0.0000   YZ=             -0.0000
 Traceless Quadrupole moment (field-independent basis, Debye-Ang):
   XX=              0.5011   YY=             -1.1840   ZZ=              0.6829
   XY=             -0.8939   XZ=             -0.0000   YZ=             -0.0000
 Octapole moment (field-independent basis, Debye-Ang**2):
  XXX=              3.1283  YYY=             -5.0552  ZZZ=              0.0000  XYY=              5.9428
  XXY=             -4.9089  XXZ=              0.0000  XZZ=             -0.1562  YZZ=              0.9055
  YYZ=              0.0000  XYZ=              0.0000
 Hexadecapole moment (field-independent basis, Debye-Ang**3):
 XXXX=           -134.1890 YYYY=           -142.7705 ZZZZ=            -26.1991 XXXY=            -15.6581
 XXXZ=             -0.0000 YYYX=            -13.4835 YYYZ=             -0.0000 ZZZX=             -0.0000
 ZZZY=             -0.0000 XXYY=            -42.6876 XXZZ=            -25.4288 YYZZ=            -28.1952
 XXYZ=             -0.0000 YYXZ=             -0.0000 ZZXY=             -2.5390
 N-N= 1.211720310207D+02 E-N=-7.799146120707D+02  KE= 2.276690846466D+02
 Symmetry A'   KE= 2.172984360861D+02
 Symmetry A"   KE= 1.037064856050D+01
 Orbital energies and kinetic energies (alpha):
                                 1                 2
   1         O               -19.172527         29.027178
   2         O               -19.104336         29.025926
   3         O               -10.299233         15.913629
   4         O               -10.188842         15.915909
   5         O                -1.114713          2.548658
   6         O                -1.031765          2.826672
   7         O                -0.766479          1.476360
   8         O                -0.628478          2.091065
   9         O                -0.527581          1.634865
  10         O                -0.480450          1.303689
  11         O                -0.476444          1.789853
  12         O                -0.429988          1.933910
  13         O                -0.406487          1.530935
  14         O                -0.386166          2.073071
  15         O                -0.328612          2.350700
  16         O                -0.283526          2.392121
  17         V                 0.000346          2.004307
  18         V                 0.017806          0.796072
  19         V                 0.071624          0.704958
  20         V                 0.104761          0.843244
  21         V                 0.119922          0.793778
  22         V                 0.159047          1.323211
  23         V                 0.212366          1.129702
  24         V                 0.242690          0.724057
  25         V                 0.255015          0.841866
  26         V                 0.311247          1.360227
  27         V                 0.328116          1.489728
  28         V                 0.330788          0.963254
  29         V                 0.360988          1.749938
  30         V                 0.395135          2.026781
  31         V                 0.429088          1.764097
  32         V                 0.431987          1.399008
  33         V                 0.447262          1.567888
  34         V                 0.466717          1.409639
  35         V                 0.503612          1.755622
  36         V                 0.543205          1.180925
  37         V                 0.560592          1.823100
  38         V                 0.599772          1.750599
  39         V                 0.625691          1.447247
  40         V                 0.647393          1.580037
  41         V                 0.684611          1.683380
  42         V                 0.689326          1.392261
  43         V                 0.731224          1.532765
  44         V                 0.764584          1.647513
  45         V                 0.782512          1.774380
  46         V                 0.836753          1.448770
  47         V                 0.860064          1.315698
  48         V                 0.915564          1.861450
  49         V                 0.957708          1.540705
  50         V                 0.967795          1.554541
  51         V                 0.989022          1.731312
  52         V                 1.013059          2.063315
  53         V                 1.059499          1.694796
  54         V                 1.112176          2.310192
  55         V                 1.152699          1.930819
  56         V                 1.164032          1.954684
  57         V                 1.204014          2.595584
  58         V                 1.250432          2.373268
  59         V                 1.276059          2.286025
  60         V                 1.298142          2.020207
  61         V                 1.331363          2.176495
  62         V                 1.336500          2.072061
  63         V                 1.437825          2.900371
  64         V                 1.500287          2.984976
  65         V                 1.521443          3.206189
  66         V                 1.568495          2.610575
  67         V                 1.665295          3.040260
  68         V                 1.718705          2.831744
  69         V                 1.725464          2.863342
  70         V                 1.855111          2.969282
  71         V                 1.966700          3.277538
  72         V                 1.992316          3.183638
  73         V                 2.030669          3.159589
  74         V                 2.064060          3.137186
  75         V                 2.106247          4.211104
  76         V                 2.141002          3.969479
  77         V                 2.209021          3.620864
  78         V                 2.245429          3.943842
  79         V                 2.314828          3.558808
  80         V                 2.375609          4.023294
  81         V                 2.391696          4.286624
  82         V                 2.516715          4.132878
  83         V                 2.531523          4.544422
  84         V                 2.565894          4.448007
  85         V                 2.633428          4.088332
  86         V                 2.718948          4.815027
  87         V                 2.739561          3.975936
  88         V                 2.759987          3.761294
  89         V                 2.784228          4.366188
  90         V                 2.811233          4.137998
  91         V                 2.909528          4.249349
  92         V                 2.942155          4.203964
  93         V                 2.952440          4.475820
  94         V                 2.974139          4.411568
  95         V                 3.049231          4.594762
  96         V                 3.074831          4.798599
  97         V                 3.111656          4.833222
  98         V                 3.115351          4.191452
  99         V                 3.134152          4.526976
 100         V                 3.194444          5.302488
 101         V                 3.209294          5.170380
 102         V                 3.244191          5.536099
 103         V                 3.266532          4.219867
 104         V                 3.288078          4.522733
 105         V                 3.313934          5.136504
 106         V                 3.399527          4.716730
 107         V                 3.415114          4.631040
 108         V                 3.442826          4.720437
 109         V                 3.482399          5.454029
 110         V                 3.500315          5.061146
 111         V                 3.563542          4.605655
 112         V                 3.578238          5.172977
 113         V                 3.638432          5.211329
 114         V                 3.723314          4.882126
 115         V                 3.758577          5.359429
 116         V                 3.771268          5.581197
 117         V                 3.782187          5.926298
 118         V                 3.800496          5.320088
 119         V                 3.829984          4.846066
 120         V                 3.925475          5.129239
 121         V                 3.954602          5.827108
 122         V                 4.032031          5.946855
 123         V                 4.073736          4.921722
 124         V                 4.101348          7.011456
 125         V                 4.103111          6.593921
 126         V                 4.116301          5.494130
 127         V                 4.197673          6.523869
 128         V                 4.257274          5.461200
 129         V                 4.276987          5.587880
 130         V                 4.305478          5.424998
 131         V                 4.367369          7.891853
 132         V                 4.387830          6.984108
 133         V                 4.488655          6.687803
 134         V                 4.610506          7.235846
 135         V                 4.745033          5.840117
 136         V                 4.799686          6.588853
 137         V                 4.837182          6.869173
 138         V                 4.938450          7.735965
 139         V                 5.044077          6.106960
 140         V                 5.063109          6.118487
 141         V                 5.093229          6.988505
 142         V                 5.098973          6.436637
 143         V                 5.158090          6.411997
 144         V                 5.174035          7.724126
 145         V                 5.229603          6.884407
 146         V                 5.255883          6.335255
 147         V                 5.268984          7.301470
 148         V                 5.308590          6.341414
 149         V                 5.321237          6.782064
 150         V                 5.570450          7.254393
 151         V                 5.623812          7.135566
 152         V                 5.721107          7.583902
 153         V                 5.796711          7.351001
 154         V                 5.802563          7.591967
 155         V                 5.919215          7.855004
 156         V                 6.000562          9.029451
 157         V                 6.222656          8.669830
 158         V                 6.275564          9.636325
 159         V                 6.334009          9.165553
 160         V                 6.406995          9.318206
 161         V                 6.454870          9.156670
 162         V                 6.591914          8.618740
 163         V                 6.614220          9.079910
 164         V                 6.664124         10.127193
 165         V                 6.749768          9.249247
 166         V                 6.819797          9.861690
 167         V                 6.839657          9.397597
 168         V                 6.931922          9.827205
 169         V                 7.027046         10.156108
 170         V                 7.097757          9.726517
 171         V                 7.260509         10.274599
 172         V                 7.391258         10.372512
 173         V                 9.074720         23.246442
 174         V                12.117982         32.820036
 175         V                12.713154         32.807339
 176         V                13.627806         34.171802
 Total kinetic energy from orbitals= 2.276690846466D+02
 No NMR shielding tensors so no spin-rotation constants.
 Leave Link  601 at Thu Sep 12 13:12:52 2024, MaxMem=   268435456 cpu:         2.3
 (Enter /g100_work/pMI24_ChiCa/g09d1/g09d01/d01/build-node-6-2-59348/src/main/l9999.exe)
 1\1\GINC-R500N004\POpt\RB3PW91\CC-pVTZ\C2H4O2\ECABIATI\12-Sep-2024\1\\
 #p B3PW91/cc-pVTZ opt(internal) pop=full gfinput\\acetic acid opt\\0,1
 \C\C,1,cc2\H,2,hc3,1,hcc3\H,2,hc4,1,hcc4,3,dih4,0\H,2,hc5,1,hcc5,3,dih
 5,0\O,1,oc6,2,occ6,3,dih6,0\O,1,oc7,6,oco7,2,dih7,0\H,7,ho8,1,hoc8,6,d
 ih8,0\\cc2=1.51125774\hc3=1.09039991\hcc3=114.46353498\hc4=1.08994271\
 hcc4=108.42831401\dih4=121.87108565\hc5=1.08994271\hcc5=108.42831401\d
 ih5=-121.87108565\oc6=1.19563589\occ6=123.36672595\dih6=180.\oc7=1.354
 68561\oco7=120.05654519\dih7=180.\ho8=0.96158555\hoc8=110.07311897\dih
 8=180.\\Version=EM64L-G09RevD.01\State=1-A'\HF=-229.0803266\RMSD=1.676
 e-09\RMSF=8.330e-05\Dipole=0.9896443,0.,1.3542836\Quadrupole=0.5595278
 ,0.5077223,-1.0672501,0.,-0.4153469,0.\PG=CS [SG(C2H2O2),X(H2)]\\@


 WHEN HAVING A MEETING OF THE MINDS,
 MAKE SURE YOU HAVE THE EQUIPMENT FOR IT.
 Job cpu time:       0 days  0 hours  3 minutes 42.2 seconds.
 File lengths (MBytes):  RWF=     17 Int=      0 D2E=      0 Chk=      3 Scr=      1
 Normal termination of Gaussian 09 at Thu Sep 12 13:12:52 2024.
