 Entering Gaussian System, Link 0=/g100_work/pMI24_ChiCa/g09d1/g09d01/d01/build-node-6-2-59348/src/main/g09
 Input=geom.com
 Output=geom.log
 Initial command:
 /g100_work/pMI24_ChiCa/g09d1/g09d01/d01/build-node-6-2-59348/src/main/l1.exe "/g100_scratch/userexternal/ecabiati/g16_14398986/Gau-11985.inp" -scrdir="/g100_scratch/userexternal/ecabiati/g16_14398986/"
 Entering Link 1 = /g100_work/pMI24_ChiCa/g09d1/g09d01/d01/build-node-6-2-59348/src/main/l1.exe PID=     11986.
  
 Copyright (c) 1988,1990,1992,1993,1995,1998,2003,2009,2013,
            Gaussian, Inc.  All Rights Reserved.
  
 This is part of the Gaussian(R) 09 program.  It is based on
 the Gaussian(R) 03 system (copyright 2003, Gaussian, Inc.),
 the Gaussian(R) 98 system (copyright 1998, Gaussian, Inc.),
 the Gaussian(R) 94 system (copyright 1995, Gaussian, Inc.),
 the Gaussian 92(TM) system (copyright 1992, Gaussian, Inc.),
 the Gaussian 90(TM) system (copyright 1990, Gaussian, Inc.),
 the Gaussian 88(TM) system (copyright 1988, Gaussian, Inc.),
 the Gaussian 86(TM) system (copyright 1986, Carnegie Mellon
 University), and the Gaussian 82(TM) system (copyright 1983,
 Carnegie Mellon University). Gaussian is a federally registered
 trademark of Gaussian, Inc.
  
 This software contains proprietary and confidential information,
 including trade secrets, belonging to Gaussian, Inc.
  
 This software is provided under written license and may be
 used, copied, transmitted, or stored only in accord with that
 written license.
  
 The following legend is applicable only to US Government
 contracts under FAR:
  
                    RESTRICTED RIGHTS LEGEND
  
 Use, reproduction and disclosure by the US Government is
 subject to restrictions as set forth in subparagraphs (a)
 and (c) of the Commercial Computer Software - Restricted
 Rights clause in FAR 52.227-19.
  
 Gaussian, Inc.
 340 Quinnipiac St., Bldg. 40, Wallingford CT 06492
  
  
 ---------------------------------------------------------------
 Warning -- This program may not be used in any manner that
 competes with the business of Gaussian, Inc. or will provide
 assistance to any competitor of Gaussian, Inc.  The licensee
 of this program is prohibited from giving any competitor of
 Gaussian, Inc. access to this program.  By using this program,
 the user acknowledges that Gaussian, Inc. is engaged in the
 business of creating and licensing software in the field of
 computational chemistry and represents and warrants to the
 licensee that it is not a competitor of Gaussian, Inc. and that
 it will not use this program in any manner prohibited above.
 ---------------------------------------------------------------
  

 Cite this work as:
 Gaussian 09, Revision D.01,
 M. J. Frisch, G. W. Trucks, H. B. Schlegel, G. E. Scuseria, 
 M. A. Robb, J. R. Cheeseman, G. Scalmani, V. Barone, B. Mennucci, 
 G. A. Petersson, H. Nakatsuji, M. Caricato, X. Li, H. P. Hratchian, 
 A. F. Izmaylov, J. Bloino, G. Zheng, J. L. Sonnenberg, M. Hada, 
 M. Ehara, K. Toyota, R. Fukuda, J. Hasegawa, M. Ishida, T. Nakajima, 
 Y. Honda, O. Kitao, H. Nakai, T. Vreven, J. A. Montgomery, Jr., 
 J. E. Peralta, F. Ogliaro, M. Bearpark, J. J. Heyd, E. Brothers, 
 K. N. Kudin, V. N. Staroverov, T. Keith, R. Kobayashi, J. Normand, 
 K. Raghavachari, A. Rendell, J. C. Burant, S. S. Iyengar, J. Tomasi, 
 M. Cossi, N. Rega, J. M. Millam, M. Klene, J. E. Knox, J. B. Cross, 
 V. Bakken, C. Adamo, J. Jaramillo, R. Gomperts, R. E. Stratmann, 
 O. Yazyev, A. J. Austin, R. Cammi, C. Pomelli, J. W. Ochterski, 
 R. L. Martin, K. Morokuma, V. G. Zakrzewski, G. A. Voth, 
 P. Salvador, J. J. Dannenberg, S. Dapprich, A. D. Daniels, 
 O. Farkas, J. B. Foresman, J. V. Ortiz, J. Cioslowski, 
 and D. J. Fox, Gaussian, Inc., Wallingford CT, 2013.
 
 ******************************************
 Gaussian 09:  EM64L-G09RevD.01 24-Apr-2013
                13-Sep-2024 
 ******************************************
 %nproc=24
 Will use up to   24 processors via shared memory.
 %mem=2Gb
 %chk=ch4+h.chk
 ----------------------------------------------------------------------
 #p B3LYP/6-31+g(d,p) opt=(Z-matrix,maxcycle=50,maxstep=35) temperature
 =300 pop=full gfinput
 ----------------------------------------------------------------------
 1/6=50,8=35,10=7,14=-1,18=40,26=3,38=1,112=300000/1,3;
 2/12=2,17=6,18=5,29=3,40=1/2;
 3/5=1,6=6,7=111,11=2,16=1,24=10,25=1,30=1,71=1,74=-5/1,2,3;
 4//1;
 5/5=2,38=5/2;
 6/7=3,28=1/1;
 7/29=1/1,2,3,16;
 1/6=50,8=35,10=7,14=-1,18=40,26=3/3(2);
 2/29=3/2;
 99//99;
 2/29=3/2;
 3/5=1,6=6,7=111,11=2,16=1,25=1,30=1,71=1,74=-5/1,2,3;
 4/5=5,16=3,69=1/1;
 5/5=2,38=5/2;
 7//1,2,3,16;
 1/6=50,8=35,14=-1,18=40,26=3/3(-5);
 2/29=3/2;
 6/7=3,19=2,28=1/1;
 99/9=1/99;
 Leave Link    1 at Fri Sep 13 21:20:15 2024, MaxMem=   268435456 cpu:         0.2
 (Enter /g100_work/pMI24_ChiCa/g09d1/g09d01/d01/build-node-6-2-59348/src/main/l101.exe)
 -----
 ch4+h
 -----
 Symbolic Z-matrix:
 Charge =  0 Multiplicity = 2
 c
 h                    1    hc2
 h                    1    hc3      2    hch3
 h                    1    hc4      2    hch4     3    dih4     0
 h                    1    hc5      2    hch5     3    dih5     0
 xx                   5    xxh6     1    xxhc6    4    dih6     0
 h                    5    hh7      6    hhxx7    1    dih7     0
       Variables:
  hc2                   1.089                    
  hc3                   1.089                    
  hch3                109.471                    
  hc4                   1.089                    
  hch4                109.471                    
  dih4                120.                       
  hc5                   1.089                    
  hch5                109.471                    
  dih5               -120.                       
  xxh6                  1.                       
  xxhc6                90.                       
  dih6                 90.                       
  hh7                   1.                       
  hhxx7                90.                       
  dih7                180.                       
 
     3 tetrahedral angles replaced.
 NAtoms=      6 NQM=        6 NQMF=       0 NMMI=      0 NMMIF=      0
                NMic=       0 NMicF=      0.
    3 tetrahedral angles replaced.
                    Isotopes and Nuclear Properties:
 (Nuclear quadrupole moments (NQMom) in fm**2, nuclear magnetic moments (NMagM)
  in nuclear magnetons)

  Atom         1           2           3           4           5           6
 IAtWgt=          12           1           1           1           1           1
 AtmWgt=  12.0000000   1.0078250   1.0078250   1.0078250   1.0078250   1.0078250
 NucSpn=           0           1           1           1           1           1
 AtZEff=   0.0000000   0.0000000   0.0000000   0.0000000   0.0000000   0.0000000
 NQMom=    0.0000000   0.0000000   0.0000000   0.0000000   0.0000000   0.0000000
 NMagM=    0.0000000   2.7928460   2.7928460   2.7928460   2.7928460   2.7928460
 AtZNuc=   6.0000000   1.0000000   1.0000000   1.0000000   1.0000000   1.0000000
 Leave Link  101 at Fri Sep 13 21:20:15 2024, MaxMem=   268435456 cpu:         0.2
 (Enter /g100_work/pMI24_ChiCa/g09d1/g09d01/d01/build-node-6-2-59348/src/main/l103.exe)

 GradGradGradGradGradGradGradGradGradGradGradGradGradGradGradGradGradGrad
 Berny optimization.
 Initialization pass.
                       ----------------------------
                       !    Initial Parameters    !
                       ! (Angstroms and Degrees)  !
 ----------------------                            ----------------------
 !      Name          Value   Derivative information (Atomic Units)     !
 ------------------------------------------------------------------------
 !       hc2         1.089    estimate D2E/DX2                          !
 !       hc3         1.089    estimate D2E/DX2                          !
 !      hch3       109.4712   estimate D2E/DX2                          !
 !       hc4         1.089    estimate D2E/DX2                          !
 !      hch4       109.4712   estimate D2E/DX2                          !
 !      dih4       120.0      estimate D2E/DX2                          !
 !       hc5         1.089    estimate D2E/DX2                          !
 !      hch5       109.4712   estimate D2E/DX2                          !
 !      dih5      -120.0      estimate D2E/DX2                          !
 !      xxh6         1.0      estimate D2E/DX2                          !
 !      xxhc6       90.0      estimate D2E/DX2                          !
 !      dih6        90.0      estimate D2E/DX2                          !
 !       hh7         1.0      estimate D2E/DX2                          !
 !      hhxx7       90.0      estimate D2E/DX2                          !
 !      dih7       180.0      estimate D2E/DX2                          !
 ------------------------------------------------------------------------
 Trust Radius=3.50D-01 FncErr=1.00D-07 GrdErr=1.00D-06
 Number of steps in this run=     50 maximum allowed number of steps=    100.
 GradGradGradGradGradGradGradGradGradGradGradGradGradGradGradGradGradGrad

 Leave Link  103 at Fri Sep 13 21:20:15 2024, MaxMem=   268435456 cpu:         0.1
 (Enter /g100_work/pMI24_ChiCa/g09d1/g09d01/d01/build-node-6-2-59348/src/main/l202.exe)
 ---------------------------------------------------------------------------------------------------
                            Z-MATRIX (ANGSTROMS AND DEGREES)
   CD    Cent   Atom    N1       Length/X        N2       Alpha/Y        N3        Beta/Z          J
 ---------------------------------------------------------------------------------------------------
      1      1  C 
      2      2  H        1   1.089000(     1)
      3      3  H        1   1.089000(     2)      2  109.471(     7)
      4      4  H        1   1.089000(     3)      2  109.471(     8)      3  120.000(    12)      0
      5      5  H        1   1.089000(     4)      2  109.471(     9)      3 -120.000(    13)      0
      6         X        5   1.000000(     5)      1   90.000(    10)      4   90.000(    14)      0
      7      6  H        5   1.000000(     6)      6   90.000(    11)      1  180.000(    15)      0
 ---------------------------------------------------------------------------------------------------
                         Z-Matrix orientation:                         
 ---------------------------------------------------------------------
 Center     Atomic      Atomic             Coordinates (Angstroms)
 Number     Number       Type             X           Y           Z
 ---------------------------------------------------------------------
      1          6           0        0.000000    0.000000    0.000000
      2          1           0        0.000000    0.000000    1.089000
      3          1           0        1.026719    0.000000   -0.363000
      4          1           0       -0.513360   -0.889165   -0.363000
      5          1           0       -0.513360    0.889165   -0.363000
      6         -1           0       -1.090710    0.889165    0.453497
      7          1           0       -0.984764    1.705661   -0.696333
 ---------------------------------------------------------------------
                    Distance matrix (angstroms):
                    1          2          3          4          5
     1  C    0.000000
     2  H    1.089000   0.000000
     3  H    1.089000   1.778330   0.000000
     4  H    1.089000   1.778330   1.778330   0.000000
     5  H    1.089000   1.778330   1.778330   1.778330   0.000000
     6  X    1.478486   1.544062   2.437373   2.040210   1.000000
     7  H    2.089000   2.658281   2.658281   2.658281   1.000000
                    6          7
     6  X    0.000000
     7  H    1.414214   0.000000
 Stoichiometry    CH5(2)
 Framework group  C3V[C3(HHC),3SGV(H)]
 Deg. of freedom     4
 Full point group                 C3V     NOp   6
 Largest Abelian subgroup         CS      NOp   2
 Largest concise Abelian subgroup CS      NOp   2
                         Standard orientation:                         
 ---------------------------------------------------------------------
 Center     Atomic      Atomic             Coordinates (Angstroms)
 Number     Number       Type             X           Y           Z
 ---------------------------------------------------------------------
      1          6           0       -0.000000    0.000000    0.189909
      2          1           0        0.000000    1.026719    0.552909
      3          1           0        0.889165   -0.513360    0.552909
      4          1           0       -0.889165   -0.513360    0.552909
      5          1           0        0.000000   -0.000000   -0.899091
      6          1           0        0.000000   -0.000000   -1.899091
 ---------------------------------------------------------------------
 Rotational constants (GHZ):    158.5650837     68.9924443     68.9924443
 Leave Link  202 at Fri Sep 13 21:20:15 2024, MaxMem=   268435456 cpu:         0.2
 (Enter /g100_work/pMI24_ChiCa/g09d1/g09d01/d01/build-node-6-2-59348/src/main/l301.exe)
 Standard basis: 6-31+G(d,p) (6D, 7F)
 Ernie: Thresh=  0.10000D-02 Tol=  0.10000D-05 Strict=F.
 AO basis set in the form of general basis input (Overlap normalization):
      1 0
 S   6 1.00       0.000000000000
      0.3047524880D+04  0.1834737132D-02
      0.4573695180D+03  0.1403732281D-01
      0.1039486850D+03  0.6884262226D-01
      0.2921015530D+02  0.2321844432D+00
      0.9286662960D+01  0.4679413484D+00
      0.3163926960D+01  0.3623119853D+00
 SP   3 1.00       0.000000000000
      0.7868272350D+01 -0.1193324198D+00  0.6899906659D-01
      0.1881288540D+01 -0.1608541517D+00  0.3164239610D+00
      0.5442492580D+00  0.1143456438D+01  0.7443082909D+00
 SP   1 1.00       0.000000000000
      0.1687144782D+00  0.1000000000D+01  0.1000000000D+01
 SP   1 1.00       0.000000000000
      0.4380000000D-01  0.1000000000D+01  0.1000000000D+01
 D   1 1.00       0.000000000000
      0.8000000000D+00  0.1000000000D+01
 ****
      2 0
 S   3 1.00       0.000000000000
      0.1873113696D+02  0.3349460434D-01
      0.2825394365D+01  0.2347269535D+00
      0.6401216923D+00  0.8137573261D+00
 S   1 1.00       0.000000000000
      0.1612777588D+00  0.1000000000D+01
 P   1 1.00       0.000000000000
      0.1100000000D+01  0.1000000000D+01
 ****
      3 0
 S   3 1.00       0.000000000000
      0.1873113696D+02  0.3349460434D-01
      0.2825394365D+01  0.2347269535D+00
      0.6401216923D+00  0.8137573261D+00
 S   1 1.00       0.000000000000
      0.1612777588D+00  0.1000000000D+01
 P   1 1.00       0.000000000000
      0.1100000000D+01  0.1000000000D+01
 ****
      4 0
 S   3 1.00       0.000000000000
      0.1873113696D+02  0.3349460434D-01
      0.2825394365D+01  0.2347269535D+00
      0.6401216923D+00  0.8137573261D+00
 S   1 1.00       0.000000000000
      0.1612777588D+00  0.1000000000D+01
 P   1 1.00       0.000000000000
      0.1100000000D+01  0.1000000000D+01
 ****
      5 0
 S   3 1.00       0.000000000000
      0.1873113696D+02  0.3349460434D-01
      0.2825394365D+01  0.2347269535D+00
      0.6401216923D+00  0.8137573261D+00
 S   1 1.00       0.000000000000
      0.1612777588D+00  0.1000000000D+01
 P   1 1.00       0.000000000000
      0.1100000000D+01  0.1000000000D+01
 ****
      6 0
 S   3 1.00       0.000000000000
      0.1873113696D+02  0.3349460434D-01
      0.2825394365D+01  0.2347269535D+00
      0.6401216923D+00  0.8137573261D+00
 S   1 1.00       0.000000000000
      0.1612777588D+00  0.1000000000D+01
 P   1 1.00       0.000000000000
      0.1100000000D+01  0.1000000000D+01
 ****

 There are    31 symmetry adapted cartesian basis functions of A'  symmetry.
 There are    13 symmetry adapted cartesian basis functions of A"  symmetry.
 There are    31 symmetry adapted basis functions of A'  symmetry.
 There are    13 symmetry adapted basis functions of A"  symmetry.
    44 basis functions,    67 primitive gaussians,    44 cartesian basis functions
     6 alpha electrons        5 beta electrons
       nuclear repulsion energy        16.0940024271 Hartrees.
 IExCor=  402 DFT=T Ex+Corr=B3LYP ExCW=0 ScaHFX=  0.200000
 ScaDFX=  0.800000  0.720000  1.000000  0.810000 ScalE2=  1.000000  1.000000
 IRadAn=      0 IRanWt=     -1 IRanGd=            0 ICorTp=0 IEmpDi=  4
 NAtoms=    6 NActive=    6 NUniq=    4 SFac= 2.25D+00 NAtFMM=   60 NAOKFM=F Big=F
 Integral buffers will be    131072 words long.
 Raffenetti 2 integral format.
 Two-electron integral symmetry is turned on.
 Leave Link  301 at Fri Sep 13 21:20:15 2024, MaxMem=   268435456 cpu:         0.1
 (Enter /g100_work/pMI24_ChiCa/g09d1/g09d01/d01/build-node-6-2-59348/src/main/l302.exe)
 NPDir=0 NMtPBC=     1 NCelOv=     1 NCel=       1 NClECP=     1 NCelD=      1
         NCelK=      1 NCelE2=     1 NClLst=     1 CellRange=     0.0.
 One-electron integrals computed using PRISM.
 One-electron integral symmetry used in STVInt
 NBasis=    44 RedAO= T EigKep=  9.61D-03  NBF=    31    13
 NBsUse=    44 1.00D-06 EigRej= -1.00D+00 NBFU=    31    13
 Precomputing XC quadrature grid using
 IXCGrd= 4 IRadAn=           0 IRanWt=          -1 IRanGd=           0 AccXCQ= 0.00D+00.
 Generated NRdTot=       0 NPtTot=           0 NUsed=           0 NTot=          32
 NSgBfM=    44    44    44    44    44 MxSgAt=     6 MxSgA2=     6.
 Leave Link  302 at Fri Sep 13 21:20:15 2024, MaxMem=   268435456 cpu:         1.2
 (Enter /g100_work/pMI24_ChiCa/g09d1/g09d01/d01/build-node-6-2-59348/src/main/l303.exe)
 DipDrv:  MaxL=1.
 Leave Link  303 at Fri Sep 13 21:20:16 2024, MaxMem=   268435456 cpu:         0.2
 (Enter /g100_work/pMI24_ChiCa/g09d1/g09d01/d01/build-node-6-2-59348/src/main/l401.exe)
 ExpMin= 4.38D-02 ExpMax= 3.05D+03 ExpMxC= 4.57D+02 IAcc=2 IRadAn=         4 AccDes= 0.00D+00
 Harris functional with IExCor=  402 and IRadAn=       4 diagonalized for initial guess.
 HarFok:  IExCor=  402 AccDes= 0.00D+00 IRadAn=         4 IDoV= 1 UseB2=F ITyADJ=14
 ICtDFT=  3500011 ScaDFX=  1.000000  1.000000  1.000000  1.000000
 FoFCou: FMM=F IPFlag=           0 FMFlag=      100000 FMFlg1=           0
         NFxFlg=           0 DoJE=T BraDBF=F KetDBF=T FulRan=T
         wScrn=  0.000000 ICntrl=     500 IOpCl=  0 I1Cent=   200000004 NGrid=           0
         NMat0=    1 NMatS0=      1 NMatT0=    0 NMatD0=    1 NMtDS0=    0 NMtDT0=    0
 Petite list used in FoFCou.
 Harris En= -41.0190071936956    
 JPrj=0 DoOrth=F DoCkMO=F.
 Initial guess orbital symmetries:
 Alpha Orbitals:
       Occupied  (A1) (A1) (A1) (E) (E) (A1)
       Virtual   (A1) (E) (E) (A1) (E) (E) (A1) (A1) (A1) (E) (E)
                 (E) (E) (A1) (A1) (A1) (A1) (E) (E) (E) (E) (A1)
                 (A2) (E) (E) (E) (E) (A1) (E) (E) (A1) (E) (E)
                 (A1) (E) (E) (A1) (A1)
 Beta  Orbitals:
       Occupied  (A1) (A1) (A1) (E) (E)
       Virtual   (A1) (A1) (E) (E) (A1) (E) (E) (A1) (A1) (A1)
                 (E) (E) (E) (E) (A1) (A1) (A1) (A1) (E) (E) (E)
                 (E) (A1) (A2) (E) (E) (E) (E) (A1) (E) (E) (A1)
                 (E) (E) (A1) (E) (E) (A1) (A1)
 The electronic state of the initial guess is 2-A1.
 Initial guess <Sx>= 0.0000 <Sy>= 0.0000 <Sz>= 0.5000 <S**2>= 0.7500 S= 0.5000
 Leave Link  401 at Fri Sep 13 21:20:16 2024, MaxMem=   268435456 cpu:         1.2
 (Enter /g100_work/pMI24_ChiCa/g09d1/g09d01/d01/build-node-6-2-59348/src/main/l502.exe)
 UHF open shell SCF:
 Using DIIS extrapolation, IDIIS=  1040.
 Integral symmetry usage will be decided dynamically.
 Keep R1 and R2 ints in memory in symmetry-blocked form, NReq=1401176.
 IVT=       25902 IEndB=       25902 NGot=   268435456 MDV=   267899095
 LenX=   267899095 LenY=   267896718
 Requested convergence on RMS density matrix=1.00D-08 within 128 cycles.
 Requested convergence on MAX density matrix=1.00D-06.
 Requested convergence on             energy=1.00D-06.
 No special actions if energy rises.
 FoFCou: FMM=F IPFlag=           0 FMFlag=           0 FMFlg1=           0
         NFxFlg=           0 DoJE=F BraDBF=F KetDBF=F FulRan=T
         wScrn=  0.000000 ICntrl=     600 IOpCl=  0 I1Cent=           0 NGrid=           0
         NMat0=    1 NMatS0=    990 NMatT0=    0 NMatD0=    1 NMtDS0=    0 NMtDT0=    0
 Petite list used in FoFCou.

 Cycle   1  Pass 1  IDiag  1:
 E= -40.9151550263257    
 DIIS: error= 4.01D-02 at cycle   1 NSaved=   1.
 NSaved= 1 IEnMin= 1 EnMin= -40.9151550263257     IErMin= 1 ErrMin= 4.01D-02
 ErrMax= 4.01D-02  0.00D+00 EMaxC= 1.00D-01 BMatC= 3.37D-01 BMatP= 3.37D-01
 IDIUse=3 WtCom= 5.99D-01 WtEn= 4.01D-01
 Coeff-Com:  0.100D+01
 Coeff-En:   0.100D+01
 Coeff:      0.100D+01
 Gap=     0.255 Goal=   None    Shift=    0.000
 Gap=     0.241 Goal=   None    Shift=    0.000
 GapD=    0.241 DampG=1.000 DampE=0.500 DampFc=0.5000 IDamp=-1.
 Damping current iteration by 5.00D-01
 RMSDP=1.60D-02 MaxDP=3.18D-01              OVMax= 2.41D-01

 Cycle   2  Pass 1  IDiag  1:
 E= -40.9540229229579     Delta-E=       -0.038867896632 Rises=F Damp=T
 DIIS: error= 1.17D-02 at cycle   2 NSaved=   2.
 NSaved= 2 IEnMin= 2 EnMin= -40.9540229229579     IErMin= 2 ErrMin= 1.17D-02
 ErrMax= 1.17D-02  0.00D+00 EMaxC= 1.00D-01 BMatC= 1.21D-02 BMatP= 3.37D-01
 IDIUse=3 WtCom= 8.83D-01 WtEn= 1.17D-01
 Coeff-Com:  0.103D+00 0.897D+00
 Coeff-En:   0.185D+00 0.815D+00
 Coeff:      0.112D+00 0.888D+00
 Gap=     0.260 Goal=   None    Shift=    0.000
 Gap=     0.319 Goal=   None    Shift=    0.000
 RMSDP=2.09D-03 MaxDP=7.38D-02 DE=-3.89D-02 OVMax= 1.56D-01

 Cycle   3  Pass 1  IDiag  1:
 E= -41.0075344727560     Delta-E=       -0.053511549798 Rises=F Damp=F
 DIIS: error= 1.40D-03 at cycle   3 NSaved=   3.
 NSaved= 3 IEnMin= 3 EnMin= -41.0075344727560     IErMin= 3 ErrMin= 1.40D-03
 ErrMax= 1.40D-03  0.00D+00 EMaxC= 1.00D-01 BMatC= 2.12D-04 BMatP= 1.21D-02
 IDIUse=3 WtCom= 9.86D-01 WtEn= 1.40D-02
 Coeff-Com: -0.820D-02-0.283D-01 0.104D+01
 Coeff-En:   0.000D+00 0.000D+00 0.100D+01
 Coeff:     -0.809D-02-0.279D-01 0.104D+01
 Gap=     0.256 Goal=   None    Shift=    0.000
 Gap=     0.325 Goal=   None    Shift=    0.000
 RMSDP=5.62D-04 MaxDP=1.12D-02 DE=-5.35D-02 OVMax= 8.39D-03

 Cycle   4  Pass 1  IDiag  1:
 E= -41.0076385708596     Delta-E=       -0.000104098104 Rises=F Damp=F
 DIIS: error= 4.29D-04 at cycle   4 NSaved=   4.
 NSaved= 4 IEnMin= 4 EnMin= -41.0076385708596     IErMin= 4 ErrMin= 4.29D-04
 ErrMax= 4.29D-04  0.00D+00 EMaxC= 1.00D-01 BMatC= 1.39D-05 BMatP= 2.12D-04
 IDIUse=3 WtCom= 9.96D-01 WtEn= 4.29D-03
 Coeff-Com: -0.152D-02-0.159D-01 0.184D-01 0.999D+00
 Coeff-En:   0.000D+00 0.000D+00 0.000D+00 0.100D+01
 Coeff:     -0.151D-02-0.158D-01 0.184D-01 0.999D+00
 Gap=     0.255 Goal=   None    Shift=    0.000
 Gap=     0.328 Goal=   None    Shift=    0.000
 RMSDP=8.54D-05 MaxDP=1.38D-03 DE=-1.04D-04 OVMax= 2.91D-03

 Cycle   5  Pass 1  IDiag  1:
 E= -41.0076461221904     Delta-E=       -0.000007551331 Rises=F Damp=F
 DIIS: error= 9.60D-05 at cycle   5 NSaved=   5.
 NSaved= 5 IEnMin= 5 EnMin= -41.0076461221904     IErMin= 5 ErrMin= 9.60D-05
 ErrMax= 9.60D-05  0.00D+00 EMaxC= 1.00D-01 BMatC= 1.52D-06 BMatP= 1.39D-05
 IDIUse=1 WtCom= 1.00D+00 WtEn= 0.00D+00
 Coeff-Com: -0.335D-03 0.136D-02-0.636D-01 0.950D-01 0.968D+00
 Coeff:     -0.335D-03 0.136D-02-0.636D-01 0.950D-01 0.968D+00
 Gap=     0.255 Goal=   None    Shift=    0.000
 Gap=     0.328 Goal=   None    Shift=    0.000
 RMSDP=3.41D-05 MaxDP=5.48D-04 DE=-7.55D-06 OVMax= 5.27D-04

 Cycle   6  Pass 1  IDiag  1:
 E= -41.0076468055489     Delta-E=       -0.000000683358 Rises=F Damp=F
 DIIS: error= 2.13D-05 at cycle   6 NSaved=   6.
 NSaved= 6 IEnMin= 6 EnMin= -41.0076468055489     IErMin= 6 ErrMin= 2.13D-05
 ErrMax= 2.13D-05  0.00D+00 EMaxC= 1.00D-01 BMatC= 8.76D-08 BMatP= 1.52D-06
 IDIUse=1 WtCom= 1.00D+00 WtEn= 0.00D+00
 Coeff-Com: -0.977D-04 0.965D-03-0.157D-01-0.124D-01 0.200D+00 0.827D+00
 Coeff:     -0.977D-04 0.965D-03-0.157D-01-0.124D-01 0.200D+00 0.827D+00
 Gap=     0.255 Goal=   None    Shift=    0.000
 Gap=     0.328 Goal=   None    Shift=    0.000
 RMSDP=4.55D-06 MaxDP=5.05D-05 DE=-6.83D-07 OVMax= 8.10D-05

 Cycle   7  Pass 1  IDiag  1:
 E= -41.0076468387536     Delta-E=       -0.000000033205 Rises=F Damp=F
 DIIS: error= 4.89D-06 at cycle   7 NSaved=   7.
 NSaved= 7 IEnMin= 7 EnMin= -41.0076468387536     IErMin= 7 ErrMin= 4.89D-06
 ErrMax= 4.89D-06  0.00D+00 EMaxC= 1.00D-01 BMatC= 5.02D-09 BMatP= 8.76D-08
 IDIUse=1 WtCom= 1.00D+00 WtEn= 0.00D+00
 Coeff-Com:  0.366D-04-0.233D-03 0.760D-02-0.728D-02-0.108D+00-0.117D+00
 Coeff-Com:  0.122D+01
 Coeff:      0.366D-04-0.233D-03 0.760D-02-0.728D-02-0.108D+00-0.117D+00
 Coeff:      0.122D+01
 Gap=     0.255 Goal=   None    Shift=    0.000
 Gap=     0.328 Goal=   None    Shift=    0.000
 RMSDP=2.18D-06 MaxDP=2.99D-05 DE=-3.32D-08 OVMax= 3.24D-05

 Cycle   8  Pass 1  IDiag  1:
 E= -41.0076468424673     Delta-E=       -0.000000003714 Rises=F Damp=F
 DIIS: error= 1.11D-06 at cycle   8 NSaved=   8.
 NSaved= 8 IEnMin= 8 EnMin= -41.0076468424673     IErMin= 8 ErrMin= 1.11D-06
 ErrMax= 1.11D-06  0.00D+00 EMaxC= 1.00D-01 BMatC= 1.88D-10 BMatP= 5.02D-09
 IDIUse=1 WtCom= 1.00D+00 WtEn= 0.00D+00
 Coeff-Com:  0.799D-05 0.105D-04-0.995D-03 0.130D-02 0.156D-01 0.393D-02
 Coeff-Com: -0.267D+00 0.125D+01
 Coeff:      0.799D-05 0.105D-04-0.995D-03 0.130D-02 0.156D-01 0.393D-02
 Coeff:     -0.267D+00 0.125D+01
 Gap=     0.255 Goal=   None    Shift=    0.000
 Gap=     0.328 Goal=   None    Shift=    0.000
 RMSDP=4.28D-07 MaxDP=6.21D-06 DE=-3.71D-09 OVMax= 7.08D-06

 Cycle   9  Pass 1  IDiag  1:
 E= -41.0076468426037     Delta-E=       -0.000000000136 Rises=F Damp=F
 DIIS: error= 1.79D-07 at cycle   9 NSaved=   9.
 NSaved= 9 IEnMin= 9 EnMin= -41.0076468426037     IErMin= 9 ErrMin= 1.79D-07
 ErrMax= 1.79D-07  0.00D+00 EMaxC= 1.00D-01 BMatC= 3.68D-12 BMatP= 1.88D-10
 IDIUse=1 WtCom= 1.00D+00 WtEn= 0.00D+00
 Coeff-Com: -0.294D-05 0.588D-05-0.177D-03 0.855D-04 0.274D-02 0.266D-02
 Coeff-Com: -0.262D-01-0.749D-01 0.110D+01
 Coeff:     -0.294D-05 0.588D-05-0.177D-03 0.855D-04 0.274D-02 0.266D-02
 Coeff:     -0.262D-01-0.749D-01 0.110D+01
 Gap=     0.255 Goal=   None    Shift=    0.000
 Gap=     0.328 Goal=   None    Shift=    0.000
 RMSDP=5.10D-08 MaxDP=5.65D-07 DE=-1.36D-10 OVMax= 1.26D-06

 Cycle  10  Pass 1  IDiag  1:
 E= -41.0076468426069     Delta-E=       -0.000000000003 Rises=F Damp=F
 DIIS: error= 2.11D-08 at cycle  10 NSaved=  10.
 NSaved=10 IEnMin=10 EnMin= -41.0076468426069     IErMin=10 ErrMin= 2.11D-08
 ErrMax= 2.11D-08  0.00D+00 EMaxC= 1.00D-01 BMatC= 6.36D-14 BMatP= 3.68D-12
 IDIUse=1 WtCom= 1.00D+00 WtEn= 0.00D+00
 Coeff-Com:  0.682D-07-0.180D-06 0.182D-04-0.418D-04-0.214D-03 0.814D-04
 Coeff-Com:  0.451D-02-0.186D-01-0.428D-01 0.106D+01
 Coeff:      0.682D-07-0.180D-06 0.182D-04-0.418D-04-0.214D-03 0.814D-04
 Coeff:      0.451D-02-0.186D-01-0.428D-01 0.106D+01
 Gap=     0.255 Goal=   None    Shift=    0.000
 Gap=     0.328 Goal=   None    Shift=    0.000
 RMSDP=8.39D-09 MaxDP=1.76D-07 DE=-3.18D-12 OVMax= 1.57D-07

 SCF Done:  E(UB3LYP) =  -41.0076468426     A.U. after   10 cycles
            NFock= 10  Conv=0.84D-08     -V/T= 2.0064
 <Sx>= 0.0000 <Sy>= 0.0000 <Sz>= 0.5000 <S**2>= 0.7534 S= 0.5017
 <L.S>=  0.00000000000    
 KE= 4.074580727280D+01 PE=-1.261516459765D+02 EE= 2.830418943400D+01
 Annihilation of the first spin contaminant:
 S**2 before annihilation     0.7534,   after     0.7500
 Leave Link  502 at Fri Sep 13 21:20:16 2024, MaxMem=   268435456 cpu:         4.6
 (Enter /g100_work/pMI24_ChiCa/g09d1/g09d01/d01/build-node-6-2-59348/src/main/l601.exe)
 Copying SCF densities to generalized density rwf, IOpCl= 1 IROHF=0.

 **********************************************************************

            Population analysis using the SCF density.

 **********************************************************************

 Orbital symmetries:
 Alpha Orbitals:
       Occupied  (A1) (A1) (A1) (E) (E) (A1)
       Virtual   (A1) (E) (E) (A1) (E) (E) (A1) (A1) (A1) (E) (E)
                 (A1) (E) (E) (A1) (A1) (A1) (E) (E) (E) (E) (A1)
                 (A2) (E) (E) (E) (E) (A1) (E) (E) (A1) (E) (E)
                 (A1) (E) (E) (A1) (A1)
 Beta  Orbitals:
       Occupied  (A1) (A1) (A1) (E) (E)
       Virtual   (A1) (A1) (E) (E) (A1) (E) (E) (A1) (A1) (A1)
                 (E) (E) (E) (E) (A1) (A1) (A1) (A1) (E) (E) (E)
                 (E) (A1) (A2) (E) (E) (E) (E) (A1) (E) (E) (A1)
                 (E) (E) (A1) (E) (E) (A1) (A1)
 The electronic state is 2-A1.
 Alpha  occ. eigenvalues --  -10.18329  -0.72549  -0.48218  -0.40820  -0.40820
 Alpha  occ. eigenvalues --   -0.23051
 Alpha virt. eigenvalues --    0.02467   0.05493   0.05493   0.06347   0.17012
 Alpha virt. eigenvalues --    0.17012   0.24832   0.30456   0.59857   0.62491
 Alpha virt. eigenvalues --    0.62491   0.85354   0.89834   0.89834   0.94974
 Alpha virt. eigenvalues --    1.03435   1.26435   1.32980   1.32980   1.81032
 Alpha virt. eigenvalues --    1.81032   1.94319   2.03371   2.07360   2.07360
 Alpha virt. eigenvalues --    2.17453   2.17453   2.57483   2.65536   2.65536
 Alpha virt. eigenvalues --    2.72275   2.94048   2.94048   3.24380   3.40924
 Alpha virt. eigenvalues --    3.40924   4.03839   4.49916
  Beta  occ. eigenvalues --  -10.17680  -0.70809  -0.44164  -0.40396  -0.40396
  Beta virt. eigenvalues --   -0.07633   0.03026   0.05523   0.05523   0.06918
  Beta virt. eigenvalues --    0.17385   0.17385   0.25344   0.33583   0.62167
  Beta virt. eigenvalues --    0.62733   0.62733   0.90313   0.90313   0.91209
  Beta virt. eigenvalues --    0.99080   1.04336   1.27927   1.34163   1.34163
  Beta virt. eigenvalues --    1.86644   1.86644   1.98749   2.03295   2.07837
  Beta virt. eigenvalues --    2.07837   2.22530   2.22530   2.59282   2.66269
  Beta virt. eigenvalues --    2.66269   2.76567   2.95127   2.95127   3.25080
  Beta virt. eigenvalues --    3.41456   3.41456   4.08064   4.51346
     Alpha Molecular Orbital Coefficients:
                           1         2         3         4         5
                        (A1)--O   (A1)--O   (A1)--O   (E)--O    (E)--O
     Eigenvalues --   -10.18329  -0.72549  -0.48218  -0.40820  -0.40820
   1 1   C  1S          0.99280  -0.19717  -0.03661   0.00000  -0.00000
   2        2S          0.05094   0.38569   0.06397   0.00000   0.00000
   3        2PX         0.00000   0.00000   0.00000   0.45125   0.00000
   4        2PY         0.00000  -0.00000  -0.00000   0.00000   0.45125
   5        2PZ        -0.00028  -0.03217   0.34861   0.00000   0.00000
   6        3S         -0.01834   0.34857   0.12732   0.00000  -0.00000
   7        3PX         0.00000   0.00000   0.00000   0.20224   0.00000
   8        3PY         0.00000   0.00000  -0.00000   0.00000   0.20224
   9        3PZ         0.00146  -0.00421   0.11810   0.00000   0.00000
  10        4S         -0.00060   0.01035   0.01097   0.00000  -0.00000
  11        4PX         0.00000   0.00000   0.00000   0.03383   0.00000
  12        4PY         0.00000   0.00000  -0.00000   0.00000   0.03383
  13        4PZ        -0.00032   0.00226   0.01748   0.00000  -0.00000
  14        5XX        -0.00936  -0.01168   0.00865   0.00000  -0.01622
  15        5YY        -0.00936  -0.01168   0.00865   0.00000   0.01622
  16        5ZZ        -0.00914  -0.00332  -0.02368   0.00000   0.00000
  17        5XY         0.00000   0.00000   0.00000  -0.01873   0.00000
  18        5XZ         0.00000   0.00000   0.00000   0.01090   0.00000
  19        5YZ        -0.00000   0.00000  -0.00000   0.00000   0.01090
  20 2   H  1S         -0.00016   0.12910   0.10090   0.00000   0.27906
  21        2S          0.00311   0.02908   0.05966   0.00000   0.21476
  22        3PX         0.00000   0.00000   0.00000   0.00851   0.00000
  23        3PY         0.00015  -0.01182  -0.00571   0.00000  -0.00556
  24        3PZ        -0.00001  -0.00445   0.00448   0.00000  -0.00447
  25 3   H  1S         -0.00016   0.12910   0.10090   0.24167  -0.13953
  26        2S          0.00311   0.02908   0.05966   0.18599  -0.10738
  27        3PX         0.00013  -0.01024  -0.00494  -0.00204   0.00609
  28        3PY        -0.00007   0.00591   0.00285   0.00609   0.00499
  29        3PZ        -0.00001  -0.00445   0.00448  -0.00387   0.00223
  30 4   H  1S         -0.00016   0.12910   0.10090  -0.24167  -0.13953
  31        2S          0.00311   0.02908   0.05966  -0.18599  -0.10738
  32        3PX        -0.00013   0.01024   0.00494  -0.00204  -0.00609
  33        3PY        -0.00007   0.00591   0.00285  -0.00609   0.00499
  34        3PZ        -0.00001  -0.00445   0.00448   0.00387   0.00223
  35 5   H  1S         -0.00048   0.16481  -0.26784   0.00000  -0.00000
  36        2S          0.00669   0.04703  -0.21080   0.00000   0.00000
  37        3PX         0.00000   0.00000   0.00000   0.00959   0.00000
  38        3PY        -0.00000  -0.00000  -0.00000   0.00000   0.00959
  39        3PZ        -0.00022   0.01069   0.00474   0.00000   0.00000
  40 6   H  1S         -0.00021   0.05999  -0.22700   0.00000  -0.00000
  41        2S         -0.00170   0.02867  -0.18040   0.00000  -0.00000
  42        3PX         0.00000   0.00000   0.00000   0.00210   0.00000
  43        3PY        -0.00000   0.00000  -0.00000   0.00000   0.00210
  44        3PZ        -0.00009   0.00549  -0.01147   0.00000  -0.00000
                           6         7         8         9        10
                        (A1)--O   (A1)--V   (E)--V    (E)--V    (A1)--V
     Eigenvalues --    -0.23051   0.02467   0.05493   0.05493   0.06347
   1 1   C  1S          0.05194   0.07183  -0.00000   0.00000  -0.00496
   2        2S         -0.12479  -0.15509  -0.00000   0.00000   0.01362
   3        2PX         0.00000   0.00000   0.00000  -0.18289   0.00000
   4        2PY        -0.00000   0.00000  -0.18289   0.00000  -0.00000
   5        2PZ         0.37816  -0.15214   0.00000   0.00000   0.01016
   6        3S         -0.18924  -0.47644   0.00000   0.00000  -0.02793
   7        3PX         0.00000   0.00000   0.00000  -0.16504   0.00000
   8        3PY        -0.00000   0.00000  -0.16504   0.00000  -0.00000
   9        3PZ         0.25737  -0.25454  -0.00000   0.00000   0.23027
  10        4S          0.12590   1.43567   0.00000   0.00000  -0.61207
  11        4PX         0.00000   0.00000   0.00000   1.17506   0.00000
  12        4PY        -0.00000   0.00000   1.17506   0.00000   0.00000
  13        4PZ        -0.01003   0.34755  -0.00000   0.00000   1.19889
  14        5XX         0.00748   0.00916   0.00782   0.00000  -0.01211
  15        5YY         0.00748   0.00916  -0.00782   0.00000  -0.01211
  16        5ZZ        -0.00551   0.01001  -0.00000   0.00000   0.01795
  17        5XY         0.00000   0.00000   0.00000   0.00903   0.00000
  18        5XZ         0.00000   0.00000   0.00000  -0.00538   0.00000
  19        5YZ        -0.00000   0.00000  -0.00538   0.00000  -0.00000
  20 2   H  1S          0.04107   0.00500  -0.05217   0.00000  -0.02424
  21        2S          0.02945  -0.07782  -0.23084   0.00000  -0.09881
  22        3PX         0.00000   0.00000   0.00000   0.00263   0.00000
  23        3PY        -0.00046   0.01305   0.01003   0.00000  -0.00331
  24        3PZ         0.00785   0.00310   0.00255   0.00000   0.00716
  25 3   H  1S          0.04107   0.00500   0.02608  -0.04518  -0.02424
  26        2S          0.02945  -0.07782   0.11542  -0.19991  -0.09881
  27        3PX        -0.00040   0.01130  -0.00320   0.00818  -0.00287
  28        3PY         0.00023  -0.00652   0.00448  -0.00320   0.00166
  29        3PZ         0.00785   0.00310  -0.00128   0.00221   0.00716
  30 4   H  1S          0.04107   0.00500   0.02608   0.04518  -0.02424
  31        2S          0.02945  -0.07782   0.11542   0.19991  -0.09881
  32        3PX         0.00040  -0.01130   0.00320   0.00818   0.00287
  33        3PY         0.00023  -0.00652   0.00448   0.00320   0.00166
  34        3PZ         0.00785   0.00310  -0.00128  -0.00221   0.00716
  35 5   H  1S         -0.08243   0.01498  -0.00000   0.00000   0.10090
  36        2S         -0.15191  -0.24668  -0.00000   0.00000   0.78395
  37        3PX         0.00000   0.00000   0.00000   0.00346   0.00000
  38        3PY        -0.00000  -0.00000   0.00346   0.00000  -0.00000
  39        3PZ        -0.02432  -0.00271  -0.00000   0.00000  -0.00075
  40 6   H  1S          0.36021  -0.06273  -0.00000   0.00000   0.09139
  41        2S          0.66744  -0.15224   0.00000   0.00000   0.25254
  42        3PX         0.00000   0.00000   0.00000   0.00911   0.00000
  43        3PY         0.00000   0.00000   0.00911   0.00000   0.00000
  44        3PZ        -0.00140   0.00350  -0.00000   0.00000   0.00744
                          11        12        13        14        15
                        (E)--V    (E)--V    (A1)--V   (A1)--V   (A1)--V
     Eigenvalues --     0.17012   0.17012   0.24832   0.30456   0.59857
   1 1   C  1S          0.00000   0.00000  -0.12946   0.09406   0.01563
   2        2S          0.00000   0.00000   0.15322  -0.08975  -0.06554
   3        2PX         0.00000  -0.32121   0.00000   0.00000   0.00000
   4        2PY        -0.32121   0.00000  -0.00000   0.00000   0.00000
   5        2PZ        -0.00000   0.00000   0.13907   0.28203  -0.84629
   6        3S         -0.00000   0.00000   2.64526  -2.42762  -0.26258
   7        3PX         0.00000  -1.38873   0.00000   0.00000   0.00000
   8        3PY        -1.38873   0.00000  -0.00000   0.00000  -0.00000
   9        3PZ         0.00000   0.00000   0.76763   1.69710   1.73670
  10        4S         -0.00000   0.00000   1.71576  -0.13057  -0.25842
  11        4PX         0.00000  -0.30868   0.00000   0.00000   0.00000
  12        4PY        -0.30868   0.00000  -0.00000   0.00000   0.00000
  13        4PZ        -0.00000   0.00000   0.03589  -0.51576  -0.48252
  14        5XX        -0.02073   0.00000  -0.02134  -0.00387  -0.03050
  15        5YY         0.02073   0.00000  -0.02134  -0.00387  -0.03050
  16        5ZZ         0.00000   0.00000   0.01072   0.04176   0.04809
  17        5XY         0.00000  -0.02393   0.00000   0.00000   0.00000
  18        5XZ         0.00000   0.02006   0.00000   0.00000   0.00000
  19        5YZ         0.02006   0.00000   0.00000  -0.00000   0.00000
  20 2   H  1S          0.17014   0.00000  -0.10249  -0.03732  -0.11425
  21        2S          1.86711   0.00000  -1.73024   0.12172   0.05367
  22        3PX         0.00000  -0.01312   0.00000   0.00000   0.00000
  23        3PY        -0.00050   0.00000  -0.00605  -0.00089   0.01663
  24        3PZ         0.00486   0.00000   0.00525   0.00695   0.02265
  25 3   H  1S         -0.08507   0.14734  -0.10249  -0.03732  -0.11425
  26        2S         -0.93356   1.61697  -1.73024   0.12172   0.05367
  27        3PX        -0.00547  -0.00365  -0.00524  -0.00077   0.01441
  28        3PY        -0.00996  -0.00547   0.00303   0.00044  -0.00832
  29        3PZ        -0.00243   0.00421   0.00525   0.00695   0.02265
  30 4   H  1S         -0.08507  -0.14734  -0.10249  -0.03732  -0.11425
  31        2S         -0.93356  -1.61697  -1.73024   0.12172   0.05367
  32        3PX         0.00547  -0.00365   0.00524   0.00077  -0.01441
  33        3PY        -0.00996   0.00547   0.00303   0.00044  -0.00832
  34        3PZ        -0.00243  -0.00421   0.00525   0.00695   0.02265
  35 5   H  1S         -0.00000   0.00000   0.04461   0.21117   0.31070
  36        2S          0.00000   0.00000  -0.29042   4.13346   0.52672
  37        3PX         0.00000  -0.01656   0.00000   0.00000   0.00000
  38        3PY        -0.01656   0.00000  -0.00000   0.00000  -0.00000
  39        3PZ        -0.00000   0.00000   0.01038  -0.01366   0.08557
  40 6   H  1S         -0.00000   0.00000  -0.09331   0.03435  -0.27158
  41        2S         -0.00000   0.00000  -0.13117  -2.13295   0.25983
  42        3PX         0.00000  -0.01377   0.00000   0.00000   0.00000
  43        3PY        -0.01377   0.00000  -0.00000   0.00000  -0.00000
  44        3PZ        -0.00000   0.00000   0.00272   0.02630  -0.00792
                          16        17        18        19        20
                        (E)--V    (E)--V    (A1)--V   (E)--V    (E)--V
     Eigenvalues --     0.62491   0.62491   0.85354   0.89834   0.89834
   1 1   C  1S          0.00000   0.00000  -0.00378   0.00000   0.00000
   2        2S         -0.00000   0.00000  -0.55754   0.00000   0.00000
   3        2PX         0.00000  -0.92803   0.00000   0.00000   0.55502
   4        2PY        -0.92803   0.00000   0.00000   0.55502   0.00000
   5        2PZ        -0.00000   0.00000   0.26379  -0.00000   0.00000
   6        3S          0.00000   0.00000   0.75674  -0.00000   0.00000
   7        3PX         0.00000   1.66753   0.00000   0.00000  -0.97499
   8        3PY         1.66753   0.00000  -0.00000  -0.97499   0.00000
   9        3PZ         0.00000   0.00000  -0.16819   0.00000   0.00000
  10        4S         -0.00000   0.00000  -0.74306   0.00000   0.00000
  11        4PX         0.00000  -0.58046   0.00000   0.00000  -0.36421
  12        4PY        -0.58046   0.00000  -0.00000  -0.36421   0.00000
  13        4PZ        -0.00000   0.00000   0.52962  -0.00000   0.00000
  14        5XX         0.02850   0.00000  -0.02744   0.19941   0.00000
  15        5YY        -0.02850   0.00000  -0.02744  -0.19941   0.00000
  16        5ZZ        -0.00000   0.00000  -0.06160  -0.00000   0.00000
  17        5XY         0.00000   0.03291   0.00000   0.00000   0.23026
  18        5XZ         0.00000  -0.02201   0.00000   0.00000  -0.17038
  19        5YZ        -0.02201   0.00000  -0.00000  -0.17038   0.00000
  20 2   H  1S         -0.29098   0.00000  -0.07388  -0.89287   0.00000
  21        2S         -0.17724   0.00000   0.01069   1.88073   0.00000
  22        3PX         0.00000   0.01282   0.00000   0.00000   0.05963
  23        3PY         0.06404   0.00000   0.00134  -0.07075   0.00000
  24        3PZ         0.01808   0.00000   0.00285  -0.04781   0.00000
  25 3   H  1S          0.14549  -0.25199  -0.07388   0.44644  -0.77325
  26        2S          0.08862  -0.15349   0.01069  -0.94036   1.62876
  27        3PX        -0.02218   0.05124   0.00116   0.05646  -0.03816
  28        3PY         0.02562  -0.02218  -0.00067   0.02704   0.05646
  29        3PZ        -0.00904   0.01566   0.00285   0.02391  -0.04141
  30 4   H  1S          0.14549   0.25199  -0.07388   0.44644   0.77325
  31        2S          0.08862   0.15349   0.01069  -0.94036  -1.62876
  32        3PX         0.02218   0.05124  -0.00116  -0.05646  -0.03816
  33        3PY         0.02562   0.02218  -0.00067   0.02704  -0.05646
  34        3PZ        -0.00904  -0.01566   0.00285   0.02391   0.04141
  35 5   H  1S          0.00000   0.00000  -0.33359  -0.00000   0.00000
  36        2S          0.00000   0.00000   0.45463   0.00000   0.00000
  37        3PX         0.00000   0.01794   0.00000   0.00000   0.06081
  38        3PY         0.01794   0.00000   0.00000   0.06081   0.00000
  39        3PZ         0.00000   0.00000   0.08867   0.00000   0.00000
  40 6   H  1S          0.00000   0.00000  -1.15757   0.00000   0.00000
  41        2S         -0.00000   0.00000   1.31044  -0.00000   0.00000
  42        3PX         0.00000   0.02799   0.00000   0.00000  -0.01842
  43        3PY         0.02799   0.00000  -0.00000  -0.01842   0.00000
  44        3PZ         0.00000   0.00000  -0.01802  -0.00000   0.00000
                          21        22        23        24        25
                        (A1)--V   (A1)--V   (A1)--V   (E)--V    (E)--V
     Eigenvalues --     0.94974   1.03435   1.26435   1.32980   1.32980
   1 1   C  1S         -0.03545   0.07568  -0.11963   0.00000   0.00000
   2        2S         -0.39851  -0.75519  -2.22107   0.00000   0.00000
   3        2PX         0.00000   0.00000   0.00000   0.00000  -0.00329
   4        2PY        -0.00000   0.00000   0.00000  -0.00329   0.00000
   5        2PZ        -0.58444  -0.12696   0.15025  -0.00000   0.00000
   6        3S          0.64361   1.99277   7.16236  -0.00000   0.00000
   7        3PX         0.00000   0.00000   0.00000   0.00000   0.03935
   8        3PY         0.00000  -0.00000  -0.00000   0.03935   0.00000
   9        3PZ         1.56073   0.30811  -1.19787   0.00000   0.00000
  10        4S          0.16013   0.94736   0.42305  -0.00000   0.00000
  11        4PX         0.00000   0.00000   0.00000   0.00000   0.00216
  12        4PY         0.00000  -0.00000  -0.00000   0.00216   0.00000
  13        4PZ         0.00260   0.10992   0.01315  -0.00000   0.00000
  14        5XX         0.08568   0.08138  -0.10339   0.32933   0.00000
  15        5YY         0.08568   0.08138  -0.10339  -0.32933   0.00000
  16        5ZZ        -0.27943  -0.05077   0.01848  -0.00000   0.00000
  17        5XY         0.00000   0.00000   0.00000   0.00000   0.38027
  18        5XZ         0.00000   0.00000   0.00000   0.00000   0.53596
  19        5YZ         0.00000  -0.00000   0.00000   0.53596   0.00000
  20 2   H  1S          0.07256   0.71944  -0.32028  -0.01047   0.00000
  21        2S         -0.85766  -1.32906  -1.08291  -0.02029   0.00000
  22        3PX         0.00000   0.00000   0.00000   0.00000   0.24239
  23        3PY         0.03093   0.07803   0.01060  -0.07940   0.00000
  24        3PZ        -0.04039   0.01384   0.00030   0.21771   0.00000
  25 3   H  1S          0.07256   0.71944  -0.32028   0.00524  -0.00907
  26        2S         -0.85766  -1.32906  -1.08291   0.01015  -0.01757
  27        3PX         0.02678   0.06757   0.00918   0.13934   0.00105
  28        3PY        -0.01546  -0.03901  -0.00530   0.16195   0.13934
  29        3PZ        -0.04039   0.01384   0.00030  -0.10886   0.18855
  30 4   H  1S          0.07256   0.71944  -0.32028   0.00524   0.00907
  31        2S         -0.85766  -1.32906  -1.08291   0.01015   0.01757
  32        3PX        -0.02678  -0.06757  -0.00918  -0.13934   0.00105
  33        3PY        -0.01546  -0.03901  -0.00530   0.16195  -0.13934
  34        3PZ        -0.04039   0.01384   0.00030  -0.10886  -0.18855
  35 5   H  1S         -1.05966   0.39023   0.28032  -0.00000   0.00000
  36        2S          3.12891  -0.55038  -4.38525   0.00000   0.00000
  37        3PX         0.00000   0.00000   0.00000   0.00000  -0.27083
  38        3PY        -0.00000  -0.00000  -0.00000  -0.27083   0.00000
  39        3PZ         0.05912  -0.02998  -0.12103   0.00000   0.00000
  40 6   H  1S          0.36563  -0.13939   0.37620  -0.00000   0.00000
  41        2S         -1.35113   0.10554   0.90357  -0.00000   0.00000
  42        3PX         0.00000   0.00000   0.00000   0.00000  -0.09865
  43        3PY         0.00000  -0.00000  -0.00000  -0.09865   0.00000
  44        3PZ        -0.09304   0.08216   0.00122   0.00000   0.00000
                          26        27        28        29        30
                        (E)--V    (E)--V    (A1)--V   (A2)--V   (E)--V
     Eigenvalues --     1.81032   1.81032   1.94319   2.03371   2.07360
   1 1   C  1S          0.00000  -0.00000   0.02253   0.00000   0.00000
   2        2S          0.00000  -0.00000  -0.18594   0.00000   0.00000
   3        2PX         0.05780   0.00000   0.00000  -0.00000   0.00000
   4        2PY         0.00000   0.05780  -0.00000   0.00000   0.12951
   5        2PZ         0.00000   0.00000   0.19577   0.00000   0.00000
   6        3S          0.00000   0.00000   0.00255   0.00000  -0.00000
   7        3PX        -0.31027   0.00000   0.00000   0.00000   0.00000
   8        3PY         0.00000  -0.31027   0.00000   0.00000  -0.63184
   9        3PZ         0.00000  -0.00000  -0.43166   0.00000  -0.00000
  10        4S          0.00000   0.00000   0.15904   0.00000   0.00000
  11        4PX        -0.02700   0.00000   0.00000  -0.00000   0.00000
  12        4PY         0.00000  -0.02700  -0.00000   0.00000   0.20226
  13        4PZ         0.00000  -0.00000   0.09359   0.00000   0.00000
  14        5XX         0.00000   0.07819  -0.25585   0.00000   0.46630
  15        5YY         0.00000  -0.07819  -0.25585   0.00000  -0.46630
  16        5ZZ         0.00000   0.00000   0.62342   0.00000   0.00000
  17        5XY         0.09029   0.00000   0.00000  -0.00000   0.00000
  18        5XZ         0.13828   0.00000   0.00000   0.00000   0.00000
  19        5YZ         0.00000   0.13828   0.00000   0.00000  -0.36781
  20 2   H  1S          0.00000   0.03757   0.23179   0.00000   0.64232
  21        2S          0.00000   0.19486  -0.16900   0.00000  -0.23188
  22        3PX        -0.02957   0.00000   0.00000   0.58157   0.00000
  23        3PY         0.00000  -0.08091   0.03322   0.00000   0.38324
  24        3PZ         0.00000   0.30033   0.17204   0.00000  -0.09302
  25 3   H  1S          0.03254  -0.01878   0.23179  -0.00000  -0.32116
  26        2S          0.16876  -0.09743  -0.16900   0.00000   0.11594
  27        3PX        -0.06807   0.02223   0.02877  -0.29079  -0.04005
  28        3PY         0.02223  -0.04240  -0.01661  -0.50366   0.31388
  29        3PZ         0.26009  -0.15016   0.17204   0.00000   0.04651
  30 4   H  1S         -0.03254  -0.01878   0.23179   0.00000  -0.32116
  31        2S         -0.16876  -0.09743  -0.16900  -0.00000   0.11594
  32        3PX        -0.06807  -0.02223  -0.02877  -0.29079   0.04005
  33        3PY        -0.02223  -0.04240  -0.01661   0.50366   0.31388
  34        3PZ        -0.26009  -0.15016   0.17204  -0.00000   0.04651
  35 5   H  1S          0.00000   0.00000  -0.31340   0.00000  -0.00000
  36        2S          0.00000  -0.00000   0.44269   0.00000   0.00000
  37        3PX         0.47842   0.00000   0.00000  -0.00000   0.00000
  38        3PY         0.00000   0.47842  -0.00000   0.00000   0.11540
  39        3PZ         0.00000   0.00000   0.26548   0.00000   0.00000
  40 6   H  1S          0.00000   0.00000   0.26630   0.00000   0.00000
  41        2S          0.00000   0.00000  -0.49263   0.00000  -0.00000
  42        3PX         0.72367   0.00000   0.00000   0.00000   0.00000
  43        3PY         0.00000   0.72367   0.00000   0.00000   0.03467
  44        3PZ         0.00000  -0.00000  -0.51020   0.00000  -0.00000
                          31        32        33        34        35
                        (E)--V    (E)--V    (E)--V    (A1)--V   (E)--V
     Eigenvalues --     2.07360   2.17453   2.17453   2.57483   2.65536
   1 1   C  1S          0.00000   0.00000  -0.00000   0.05107   0.00000
   2        2S          0.00000   0.00000  -0.00000   0.12998   0.00000
   3        2PX        -0.12951  -0.00304   0.00000   0.00000  -0.18398
   4        2PY         0.00000   0.00000  -0.00304  -0.00000   0.00000
   5        2PZ         0.00000   0.00000  -0.00000   0.21070   0.00000
   6        3S          0.00000   0.00000   0.00000  -1.57082   0.00000
   7        3PX         0.63184  -0.11929   0.00000   0.00000  -0.60509
   8        3PY         0.00000   0.00000  -0.11929  -0.00000   0.00000
   9        3PZ         0.00000   0.00000   0.00000   1.33226   0.00000
  10        4S          0.00000   0.00000   0.00000  -0.04529   0.00000
  11        4PX        -0.20226  -0.08092   0.00000   0.00000   0.00828
  12        4PY         0.00000   0.00000  -0.08092   0.00000   0.00000
  13        4PZ         0.00000   0.00000  -0.00000  -0.15767   0.00000
  14        5XX         0.00000   0.00000  -0.09778   0.02388   0.00000
  15        5YY         0.00000   0.00000   0.09778   0.02388   0.00000
  16        5ZZ         0.00000   0.00000  -0.00000  -0.07066   0.00000
  17        5XY        -0.53844  -0.11290   0.00000   0.00000  -0.44947
  18        5XZ         0.36781   0.26059   0.00000   0.00000   0.12833
  19        5YZ         0.00000   0.00000   0.26059   0.00000   0.00000
  20 2   H  1S          0.00000   0.00000  -0.16076   0.00825   0.00000
  21        2S          0.00000   0.00000   0.25964   0.02582   0.00000
  22        3PX        -0.29076   0.19183   0.00000   0.00000   0.69180
  23        3PY         0.00000   0.00000   0.10923   0.12622   0.00000
  24        3PZ         0.00000   0.00000  -0.54932  -0.56086   0.00000
  25 3   H  1S         -0.55627  -0.13922   0.08038   0.00825  -0.03091
  26        2S          0.20081   0.22485  -0.12982   0.02582   0.39411
  27        3PX        -0.36012   0.12988   0.03577   0.10931   0.07313
  28        3PY         0.04005   0.03577   0.17118  -0.06311   0.35719
  29        3PZ         0.08056  -0.47573   0.27466  -0.56086  -0.11949
  30 4   H  1S          0.55627   0.13922   0.08038   0.00825   0.03091
  31        2S         -0.20081  -0.22485  -0.12982   0.02582  -0.39411
  32        3PX        -0.36012   0.12988  -0.03577  -0.10931   0.07313
  33        3PY        -0.04005  -0.03577   0.17118  -0.06311  -0.35719
  34        3PZ        -0.08056   0.47573   0.27466  -0.56086   0.11949
  35 5   H  1S          0.00000   0.00000   0.00000   0.49884   0.00000
  36        2S          0.00000   0.00000  -0.00000   1.97999   0.00000
  37        3PX        -0.11540  -0.35820   0.00000   0.00000   0.60805
  38        3PY         0.00000   0.00000  -0.35820   0.00000   0.00000
  39        3PZ         0.00000   0.00000  -0.00000   0.21704   0.00000
  40 6   H  1S          0.00000   0.00000  -0.00000  -0.03584   0.00000
  41        2S          0.00000   0.00000   0.00000  -0.71281   0.00000
  42        3PX        -0.03467   0.60006   0.00000   0.00000  -0.25384
  43        3PY         0.00000   0.00000   0.60006  -0.00000   0.00000
  44        3PZ         0.00000   0.00000   0.00000  -0.48442   0.00000
                          36        37        38        39        40
                        (E)--V    (A1)--V   (E)--V    (E)--V    (A1)--V
     Eigenvalues --     2.65536   2.72275   2.94048   2.94048   3.24380
   1 1   C  1S          0.00000  -0.07059   0.00000  -0.00000  -0.11370
   2        2S         -0.00000   0.14850   0.00000   0.00000   0.80991
   3        2PX         0.00000   0.00000  -0.05306   0.00000   0.00000
   4        2PY        -0.18398  -0.00000   0.00000  -0.05306   0.00000
   5        2PZ        -0.00000  -0.12996   0.00000   0.00000   0.46821
   6        3S          0.00000   1.40098   0.00000  -0.00000   1.10942
   7        3PX         0.00000   0.00000  -0.05957   0.00000   0.00000
   8        3PY        -0.60509  -0.00000   0.00000  -0.05957   0.00000
   9        3PZ        -0.00000  -0.23750   0.00000   0.00000   0.44220
  10        4S          0.00000   0.11749   0.00000  -0.00000   0.31448
  11        4PX         0.00000   0.00000   0.01662   0.00000   0.00000
  12        4PY         0.00828   0.00000   0.00000   0.01662  -0.00000
  13        4PZ         0.00000   0.11673   0.00000  -0.00000  -0.03449
  14        5XX        -0.38925  -0.44073   0.00000   0.42692   0.27197
  15        5YY         0.38925  -0.44073   0.00000  -0.42692   0.27197
  16        5ZZ        -0.00000   0.82080   0.00000  -0.00000  -0.75386
  17        5XY         0.00000   0.00000   0.49297   0.00000   0.00000
  18        5XZ         0.00000   0.00000   0.73498   0.00000   0.00000
  19        5YZ         0.12833   0.00000   0.00000   0.73498   0.00000
  20 2   H  1S         -0.03569   0.03175   0.00000   0.02249  -0.32732
  21        2S          0.45508  -0.33950   0.00000   0.03062  -0.58708
  22        3PX         0.00000   0.00000  -0.43054   0.00000   0.00000
  23        3PY        -0.13309   0.28857   0.00000   0.12156   0.70625
  24        3PZ        -0.13797  -0.21655   0.00000  -0.47828   0.26086
  25 3   H  1S          0.01785   0.03175   0.01948  -0.01124  -0.32732
  26        2S         -0.22754  -0.33950   0.02652  -0.01531  -0.58708
  27        3PX         0.35719   0.24991  -0.01647  -0.23907   0.61163
  28        3PY         0.48557  -0.14429  -0.23907  -0.29252  -0.35312
  29        3PZ         0.06899  -0.21655  -0.41420   0.23914   0.26086
  30 4   H  1S          0.01785   0.03175  -0.01948  -0.01124  -0.32732
  31        2S         -0.22754  -0.33950  -0.02652  -0.01531  -0.58708
  32        3PX        -0.35719  -0.24991  -0.01647   0.23907  -0.61163
  33        3PY         0.48557  -0.14429   0.23907  -0.29252  -0.35312
  34        3PZ         0.06899  -0.21655   0.41420   0.23914   0.26086
  35 5   H  1S          0.00000  -0.78106   0.00000   0.00000   0.36198
  36        2S         -0.00000  -0.85368   0.00000   0.00000   0.15263
  37        3PX         0.00000   0.00000   0.62432   0.00000   0.00000
  38        3PY         0.60805   0.00000   0.00000   0.62432   0.00000
  39        3PZ        -0.00000  -0.20401   0.00000   0.00000  -0.00046
  40 6   H  1S          0.00000   0.03913   0.00000  -0.00000  -0.02133
  41        2S          0.00000   0.47586   0.00000  -0.00000  -0.20617
  42        3PX         0.00000   0.00000  -0.25139   0.00000   0.00000
  43        3PY        -0.25384  -0.00000   0.00000  -0.25139  -0.00000
  44        3PZ        -0.00000   0.61433   0.00000   0.00000  -0.22532
                          41        42        43        44
                        (E)--V    (E)--V    (A1)--V   (A1)--V
     Eigenvalues --     3.40924   3.40924   4.03839   4.49916
   1 1   C  1S          0.00000   0.00000   0.13078  -0.48305
   2        2S         -0.00000   0.00000  -1.09348   2.49179
   3        2PX         0.00000  -0.92507   0.00000   0.00000
   4        2PY         0.92507   0.00000  -0.00000   0.00000
   5        2PZ        -0.00000   0.00000   0.77345   0.19843
   6        3S         -0.00000   0.00000  -0.26438   3.01764
   7        3PX         0.00000  -0.53466   0.00000   0.00000
   8        3PY         0.53466   0.00000  -0.00000  -0.00000
   9        3PZ        -0.00000   0.00000   0.15470  -0.33548
  10        4S         -0.00000   0.00000  -0.02222   0.07480
  11        4PX         0.00000  -0.00676   0.00000   0.00000
  12        4PY         0.00676   0.00000  -0.00000  -0.00000
  13        4PZ         0.00000   0.00000  -0.01198   0.05312
  14        5XX        -0.83037   0.00000   0.84194  -1.95495
  15        5YY         0.83037   0.00000   0.84194  -1.95495
  16        5ZZ         0.00000   0.00000  -0.34727  -2.17141
  17        5XY         0.00000   0.95883   0.00000   0.00000
  18        5XZ         0.00000  -0.69836   0.00000   0.00000
  19        5YZ         0.69836   0.00000  -0.00000   0.00000
  20 2   H  1S         -0.77952   0.00000  -0.18894   0.20877
  21        2S         -0.52703   0.00000   0.03385  -0.47814
  22        3PX         0.00000  -0.01107   0.00000   0.00000
  23        3PY         1.09086   0.00000   0.15386  -0.27444
  24        3PZ         0.37207   0.00000   0.05924  -0.07229
  25 3   H  1S          0.38976   0.67509  -0.18894   0.20877
  26        2S          0.26352   0.45643   0.03385  -0.47814
  27        3PX        -0.46757  -0.82091   0.13325  -0.23767
  28        3PY         0.28102   0.46757  -0.07693   0.13722
  29        3PZ        -0.18604  -0.32222   0.05924  -0.07229
  30 4   H  1S          0.38976  -0.67509  -0.18894   0.20877
  31        2S          0.26352  -0.45643   0.03385  -0.47814
  32        3PX         0.46757  -0.82091  -0.13325   0.23767
  33        3PY         0.28102  -0.46757  -0.07693   0.13722
  34        3PZ        -0.18604   0.32222   0.05924  -0.07229
  35 5   H  1S         -0.00000   0.00000   0.31063   0.32979
  36        2S         -0.00000   0.00000   0.06151  -1.33510
  37        3PX         0.00000  -0.04252   0.00000   0.00000
  38        3PY         0.04252   0.00000   0.00000   0.00000
  39        3PZ         0.00000   0.00000   1.51505   0.69598
  40 6   H  1S          0.00000   0.00000   0.38779   0.19686
  41        2S          0.00000   0.00000   0.10775   0.36484
  42        3PX         0.00000   0.05023   0.00000   0.00000
  43        3PY        -0.05023   0.00000   0.00000   0.00000
  44        3PZ         0.00000   0.00000   0.79880   0.27897
     Beta Molecular Orbital Coefficients:
                           1         2         3         4         5
                        (A1)--O   (A1)--O   (A1)--O   (E)--O    (E)--O
     Eigenvalues --   -10.17680  -0.70809  -0.44164  -0.40396  -0.40396
   1 1   C  1S          0.99297  -0.19613  -0.02301   0.00000   0.00000
   2        2S          0.04988   0.37513   0.04564   0.00000   0.00000
   3        2PX         0.00000   0.00000   0.00000   0.44345   0.00000
   4        2PY         0.00000  -0.00000  -0.00000   0.00000   0.44345
   5        2PZ         0.00010   0.00161   0.36350   0.00000   0.00000
   6        3S         -0.01849   0.34103   0.11914   0.00000  -0.00000
   7        3PX         0.00000   0.00000   0.00000   0.19911   0.00000
   8        3PY         0.00000   0.00000  -0.00000   0.00000   0.19911
   9        3PZ         0.00152   0.00073   0.11904   0.00000   0.00000
  10        4S         -0.00060   0.01194   0.00483   0.00000  -0.00000
  11        4PX         0.00000   0.00000   0.00000   0.03540   0.00000
  12        4PY         0.00000   0.00000  -0.00000   0.00000   0.03540
  13        4PZ        -0.00032   0.00103   0.02630   0.00000  -0.00000
  14        5XX        -0.00882  -0.00822   0.00886   0.00000  -0.01632
  15        5YY        -0.00882  -0.00822   0.00886   0.00000   0.01632
  16        5ZZ        -0.00924  -0.01086  -0.02397   0.00000   0.00000
  17        5XY         0.00000   0.00000   0.00000  -0.01884   0.00000
  18        5XZ         0.00000   0.00000   0.00000   0.01449   0.00000
  19        5YZ        -0.00000   0.00000  -0.00000   0.00000   0.01449
  20 2   H  1S         -0.00022   0.13684   0.09959   0.00000   0.28233
  21        2S          0.00312   0.03617   0.06899   0.00000   0.22083
  22        3PX         0.00000   0.00000   0.00000   0.00861   0.00000
  23        3PY         0.00019  -0.01216  -0.00547   0.00000  -0.00518
  24        3PZ         0.00002  -0.00446   0.00529   0.00000  -0.00523
  25 3   H  1S         -0.00022   0.13684   0.09959   0.24450  -0.14116
  26        2S          0.00312   0.03617   0.06899   0.19124  -0.11042
  27        3PX         0.00016  -0.01053  -0.00473  -0.00173   0.00597
  28        3PY        -0.00009   0.00608   0.00273   0.00597   0.00516
  29        3PZ         0.00002  -0.00446   0.00529  -0.00453   0.00262
  30 4   H  1S         -0.00022   0.13684   0.09959  -0.24450  -0.14116
  31        2S          0.00312   0.03617   0.06899  -0.19124  -0.11042
  32        3PX        -0.00016   0.01053   0.00473  -0.00173  -0.00597
  33        3PY        -0.00009   0.00608   0.00273  -0.00597   0.00516
  34        3PZ         0.00002  -0.00446   0.00529   0.00453   0.00262
  35 5   H  1S         -0.00031   0.15826  -0.30705   0.00000  -0.00000
  36        2S          0.00685   0.05457  -0.31334   0.00000   0.00000
  37        3PX         0.00000   0.00000   0.00000   0.00930   0.00000
  38        3PY        -0.00000  -0.00000   0.00000   0.00000   0.00930
  39        3PZ        -0.00009   0.00942   0.00626   0.00000   0.00000
  40 6   H  1S         -0.00019   0.03885  -0.14425   0.00000  -0.00000
  41        2S         -0.00174   0.01356  -0.07485   0.00000  -0.00000
  42        3PX         0.00000   0.00000   0.00000   0.00170   0.00000
  43        3PY        -0.00000  -0.00000  -0.00000   0.00000   0.00170
  44        3PZ        -0.00008   0.00477  -0.01227   0.00000  -0.00000
                           6         7         8         9        10
                        (A1)--V   (A1)--V   (E)--V    (E)--V    (A1)--V
     Eigenvalues --    -0.07633   0.03026   0.05523   0.05523   0.06918
   1 1   C  1S          0.06808   0.06064  -0.00000   0.00000  -0.00742
   2        2S         -0.14873  -0.12886  -0.00000   0.00000   0.01160
   3        2PX         0.00000   0.00000   0.00000  -0.17864   0.00000
   4        2PY        -0.00000   0.00000  -0.17864   0.00000  -0.00000
   5        2PZ         0.30635  -0.19735   0.00000   0.00000   0.05371
   6        3S         -0.31633  -0.41512   0.00000   0.00000   0.04145
   7        3PX         0.00000   0.00000   0.00000  -0.15583   0.00000
   8        3PY         0.00000   0.00000  -0.15583   0.00000  -0.00000
   9        3PZ         0.29970  -0.31567  -0.00000   0.00000   0.28273
  10        4S          0.42727   1.33240   0.00000   0.00000  -0.70346
  11        4PX         0.00000   0.00000   0.00000   1.17842   0.00000
  12        4PY         0.00000   0.00000   1.17842   0.00000   0.00000
  13        4PZ        -0.06316   0.46527  -0.00000   0.00000   1.16874
  14        5XX         0.00410   0.00757   0.00805   0.00000  -0.01312
  15        5YY         0.00410   0.00757  -0.00805   0.00000  -0.01312
  16        5ZZ         0.00515   0.01129  -0.00000   0.00000   0.01713
  17        5XY         0.00000   0.00000   0.00000   0.00930   0.00000
  18        5XZ         0.00000   0.00000   0.00000  -0.00702   0.00000
  19        5YZ         0.00000   0.00000  -0.00702   0.00000  -0.00000
  20 2   H  1S          0.02723  -0.00055  -0.05591   0.00000  -0.02383
  21        2S         -0.02146  -0.07879  -0.24702   0.00000  -0.11172
  22        3PX         0.00000   0.00000   0.00000   0.00266   0.00000
  23        3PY         0.00238   0.01257   0.00994   0.00000  -0.00446
  24        3PZ         0.00873   0.00212   0.00261   0.00000   0.00818
  25 3   H  1S          0.02723  -0.00055   0.02795  -0.04842  -0.02383
  26        2S         -0.02146  -0.07879   0.12351  -0.21393  -0.11172
  27        3PX         0.00206   0.01089  -0.00316   0.00812  -0.00386
  28        3PY        -0.00119  -0.00629   0.00448  -0.00316   0.00223
  29        3PZ         0.00873   0.00212  -0.00130   0.00226   0.00818
  30 4   H  1S          0.02723  -0.00055   0.02795   0.04842  -0.02383
  31        2S         -0.02146  -0.07879   0.12351   0.21393  -0.11172
  32        3PX        -0.00206  -0.01089   0.00316   0.00812   0.00386
  33        3PY        -0.00119  -0.00629   0.00448   0.00316   0.00223
  34        3PZ         0.00873   0.00212  -0.00130  -0.00226   0.00818
  35 5   H  1S         -0.03318   0.01968  -0.00000   0.00000   0.10821
  36        2S         -0.07716  -0.22165  -0.00000   0.00000   0.76090
  37        3PX         0.00000   0.00000   0.00000   0.00381   0.00000
  38        3PY        -0.00000  -0.00000   0.00381   0.00000   0.00000
  39        3PZ        -0.02511   0.00057   0.00000   0.00000  -0.00340
  40 6   H  1S          0.27838  -0.08602  -0.00000   0.00000   0.09262
  41        2S          0.63160  -0.22820   0.00000   0.00000   0.38461
  42        3PX         0.00000   0.00000   0.00000   0.00635   0.00000
  43        3PY         0.00000   0.00000   0.00635   0.00000  -0.00000
  44        3PZ         0.00792   0.00058   0.00000   0.00000   0.00809
                          11        12        13        14        15
                        (E)--V    (E)--V    (A1)--V   (A1)--V   (A1)--V
     Eigenvalues --     0.17385   0.17385   0.25344   0.33583   0.62167
   1 1   C  1S          0.00000   0.00000  -0.13475   0.09106   0.00670
   2        2S          0.00000   0.00000   0.16003  -0.07844  -0.05815
   3        2PX         0.00000  -0.31908   0.00000   0.00000   0.00000
   4        2PY        -0.31908   0.00000  -0.00000   0.00000   0.00000
   5        2PZ        -0.00000   0.00000   0.12779   0.24841  -0.88134
   6        3S         -0.00000   0.00000   2.71753  -2.40580  -0.06656
   7        3PX         0.00000  -1.40580   0.00000   0.00000   0.00000
   8        3PY        -1.40580   0.00000  -0.00000   0.00000  -0.00000
   9        3PZ        -0.00000   0.00000   0.70958   1.77324   1.66938
  10        4S         -0.00000   0.00000   1.74677  -0.10271  -0.16558
  11        4PX         0.00000  -0.29632   0.00000   0.00000   0.00000
  12        4PY        -0.29632   0.00000  -0.00000   0.00000   0.00000
  13        4PZ        -0.00000   0.00000   0.03044  -0.52319  -0.49828
  14        5XX        -0.01980   0.00000  -0.01820  -0.00835  -0.02414
  15        5YY         0.01980   0.00000  -0.01820  -0.00835  -0.02414
  16        5ZZ         0.00000   0.00000   0.00377   0.04521   0.04310
  17        5XY         0.00000  -0.02286   0.00000   0.00000   0.00000
  18        5XZ         0.00000   0.01440   0.00000   0.00000   0.00000
  19        5YZ         0.01440   0.00000   0.00000  -0.00000   0.00000
  20 2   H  1S          0.16565   0.00000  -0.09821  -0.04529  -0.11457
  21        2S          1.87376   0.00000  -1.74332   0.09661   0.00201
  22        3PX         0.00000  -0.01359   0.00000   0.00000   0.00000
  23        3PY        -0.00069   0.00000  -0.00642  -0.00129   0.01796
  24        3PZ         0.00443   0.00000   0.00448   0.00845   0.02212
  25 3   H  1S         -0.08282   0.14345  -0.09821  -0.04529  -0.11457
  26        2S         -0.93688   1.62273  -1.74332   0.09661   0.00201
  27        3PX        -0.00559  -0.00391  -0.00556  -0.00112   0.01556
  28        3PY        -0.01036  -0.00559   0.00321   0.00065  -0.00898
  29        3PZ        -0.00221   0.00383   0.00448   0.00845   0.02212
  30 4   H  1S         -0.08282  -0.14345  -0.09821  -0.04529  -0.11457
  31        2S         -0.93688  -1.62273  -1.74332   0.09661   0.00201
  32        3PX         0.00559  -0.00391   0.00556   0.00112  -0.01556
  33        3PY        -0.01036   0.00559   0.00321   0.00065  -0.00898
  34        3PZ        -0.00221  -0.00383   0.00448   0.00845   0.02212
  35 5   H  1S         -0.00000   0.00000   0.03230   0.20885   0.33106
  36        2S          0.00000   0.00000  -0.37571   4.16877   0.28673
  37        3PX         0.00000  -0.01626   0.00000   0.00000   0.00000
  38        3PY        -0.01626   0.00000  -0.00000   0.00000  -0.00000
  39        3PZ        -0.00000   0.00000   0.01096  -0.01233   0.08399
  40 6   H  1S         -0.00000   0.00000  -0.07781   0.01242  -0.20730
  41        2S         -0.00000   0.00000  -0.16283  -2.18009   0.24340
  42        3PX         0.00000  -0.01122   0.00000   0.00000   0.00000
  43        3PY        -0.01122   0.00000  -0.00000   0.00000  -0.00000
  44        3PZ        -0.00000   0.00000   0.00119   0.01030  -0.00492
                          16        17        18        19        20
                        (E)--V    (E)--V    (E)--V    (E)--V    (A1)--V
     Eigenvalues --     0.62733   0.62733   0.90313   0.90313   0.91209
   1 1   C  1S          0.00000   0.00000  -0.00000   0.00000  -0.03304
   2        2S         -0.00000   0.00000  -0.00000   0.00000  -0.67728
   3        2PX         0.00000  -0.92530   0.00000   0.56760   0.00000
   4        2PY        -0.92530   0.00000   0.56760   0.00000  -0.00000
   5        2PZ        -0.00000   0.00000  -0.00000   0.00000  -0.12191
   6        3S          0.00000   0.00000   0.00000   0.00000   1.02545
   7        3PX         0.00000   1.65223   0.00000  -0.98034   0.00000
   8        3PY         1.65223   0.00000  -0.98034   0.00000   0.00000
   9        3PZ         0.00000   0.00000   0.00000   0.00000   0.71572
  10        4S         -0.00000   0.00000  -0.00000   0.00000  -0.57908
  11        4PX         0.00000  -0.58289   0.00000  -0.36062   0.00000
  12        4PY        -0.58289   0.00000  -0.36062   0.00000   0.00000
  13        4PZ        -0.00000   0.00000   0.00000   0.00000   0.40480
  14        5XX         0.02895   0.00000   0.20095   0.00000   0.00692
  15        5YY        -0.02895   0.00000  -0.20095   0.00000   0.00692
  16        5ZZ        -0.00000   0.00000  -0.00000   0.00000  -0.18912
  17        5XY         0.00000   0.03343   0.00000   0.23203   0.00000
  18        5XZ         0.00000  -0.02585   0.00000  -0.15878   0.00000
  19        5YZ        -0.02585   0.00000  -0.15878   0.00000   0.00000
  20 2   H  1S         -0.29895   0.00000  -0.89356   0.00000  -0.09205
  21        2S         -0.15400   0.00000   1.87567   0.00000  -0.39082
  22        3PX         0.00000   0.01283   0.00000   0.06205   0.00000
  23        3PY         0.06431   0.00000  -0.07260   0.00000   0.01300
  24        3PZ         0.01787   0.00000  -0.04645   0.00000  -0.01752
  25 3   H  1S          0.14947  -0.25890   0.44678  -0.77385  -0.09205
  26        2S          0.07700  -0.13337  -0.93783   1.62438  -0.39082
  27        3PX        -0.02229   0.05144   0.05830  -0.03894   0.01126
  28        3PY         0.02570  -0.02229   0.02839   0.05830  -0.00650
  29        3PZ        -0.00893   0.01548   0.02322  -0.04022  -0.01752
  30 4   H  1S          0.14947   0.25890   0.44678   0.77385  -0.09205
  31        2S          0.07700   0.13337  -0.93783  -1.62438  -0.39082
  32        3PX         0.02229   0.05144  -0.05830  -0.03894  -0.01126
  33        3PY         0.02570   0.02229   0.02839  -0.05830  -0.00650
  34        3PZ        -0.00893  -0.01548   0.02322   0.04022  -0.01752
  35 5   H  1S          0.00000   0.00000  -0.00000   0.00000  -0.87130
  36        2S          0.00000   0.00000   0.00000   0.00000   2.01010
  37        3PX         0.00000   0.01927   0.00000   0.05889   0.00000
  38        3PY         0.01927   0.00000   0.05889   0.00000  -0.00000
  39        3PZ         0.00000   0.00000   0.00000   0.00000   0.12063
  40 6   H  1S         -0.00000   0.00000  -0.00000   0.00000  -0.77139
  41        2S          0.00000   0.00000   0.00000   0.00000   0.36302
  42        3PX         0.00000   0.02443   0.00000  -0.01489   0.00000
  43        3PY         0.02443   0.00000  -0.01489   0.00000   0.00000
  44        3PZ         0.00000   0.00000  -0.00000   0.00000  -0.07210
                          21        22        23        24        25
                        (A1)--V   (A1)--V   (A1)--V   (E)--V    (E)--V
     Eigenvalues --     0.99080   1.04336   1.27927   1.34163   1.34163
   1 1   C  1S         -0.00188   0.07612  -0.12074   0.00000   0.00000
   2        2S         -0.13573  -0.82775  -2.19168   0.00000   0.00000
   3        2PX         0.00000   0.00000   0.00000  -0.01382   0.00000
   4        2PY        -0.00000   0.00000   0.00000   0.00000  -0.01382
   5        2PZ        -0.62701   0.01737   0.13972   0.00000  -0.00000
   6        3S          0.28315   2.12269   7.11533   0.00000  -0.00000
   7        3PX         0.00000   0.00000   0.00000   0.04282   0.00000
   8        3PY         0.00000  -0.00000  -0.00000   0.00000   0.04282
   9        3PZ         1.43782   0.02253  -1.18274   0.00000   0.00000
  10        4S          0.67382   0.77833   0.44200   0.00000  -0.00000
  11        4PX         0.00000   0.00000   0.00000   0.00483   0.00000
  12        4PY         0.00000  -0.00000  -0.00000   0.00000   0.00483
  13        4PZ        -0.20760   0.19182  -0.00116   0.00000  -0.00000
  14        5XX         0.11265   0.05172  -0.10300   0.00000   0.32884
  15        5YY         0.11265   0.05172  -0.10300   0.00000  -0.32884
  16        5ZZ        -0.21432  -0.00789   0.01243   0.00000  -0.00000
  17        5XY         0.00000   0.00000   0.00000   0.37971   0.00000
  18        5XZ         0.00000   0.00000   0.00000   0.53156   0.00000
  19        5YZ         0.00000  -0.00000   0.00000   0.00000   0.53156
  20 2   H  1S          0.28200   0.66631  -0.32088   0.00000   0.00410
  21        2S         -0.95311  -1.18586  -1.08145   0.00000  -0.03511
  22        3PX         0.00000   0.00000   0.00000   0.24497   0.00000
  23        3PY         0.04245   0.07239   0.00966   0.00000  -0.07821
  24        3PZ        -0.03482   0.02170  -0.00299   0.00000   0.22335
  25 3   H  1S          0.28200   0.66631  -0.32088   0.00355  -0.00205
  26        2S         -0.95311  -1.18586  -1.08145  -0.03041   0.01756
  27        3PX         0.03676   0.06270   0.00836   0.00258   0.13994
  28        3PY        -0.02122  -0.03620  -0.00483   0.13994   0.16417
  29        3PZ        -0.03482   0.02170  -0.00299   0.19343  -0.11168
  30 4   H  1S          0.28200   0.66631  -0.32088  -0.00355  -0.00205
  31        2S         -0.95311  -1.18586  -1.08145   0.03041   0.01756
  32        3PX        -0.03676  -0.06270  -0.00836   0.00258  -0.13994
  33        3PY        -0.02122  -0.03620  -0.00483  -0.13994   0.16417
  34        3PZ        -0.03482   0.02170  -0.00299  -0.19343  -0.11168
  35 5   H  1S         -0.62956   0.48066   0.25591   0.00000  -0.00000
  36        2S          2.39467  -0.98406  -4.34154   0.00000   0.00000
  37        3PX         0.00000   0.00000   0.00000  -0.27307   0.00000
  38        3PY        -0.00000  -0.00000  -0.00000   0.00000  -0.27307
  39        3PZ        -0.01060  -0.01871  -0.13215   0.00000   0.00000
  40 6   H  1S          0.86938  -0.41708   0.44524   0.00000  -0.00000
  41        2S         -1.74883   0.53409   0.82984   0.00000  -0.00000
  42        3PX         0.00000   0.00000   0.00000  -0.08382   0.00000
  43        3PY         0.00000  -0.00000  -0.00000   0.00000  -0.08382
  44        3PZ        -0.04167   0.07764   0.00872   0.00000   0.00000
                          26        27        28        29        30
                        (E)--V    (E)--V    (A1)--V   (A2)--V   (E)--V
     Eigenvalues --     1.86644   1.86644   1.98749   2.03295   2.07837
   1 1   C  1S          0.00000  -0.00000   0.01570   0.00000   0.00000
   2        2S          0.00000  -0.00000  -0.19483   0.00000   0.00000
   3        2PX         0.04912   0.00000   0.00000  -0.00000  -0.13531
   4        2PY         0.00000   0.04912  -0.00000   0.00000   0.00000
   5        2PZ         0.00000   0.00000   0.18033   0.00000   0.00000
   6        3S          0.00000   0.00000   0.15466   0.00000   0.00000
   7        3PX        -0.28909   0.00000   0.00000   0.00000   0.64048
   8        3PY         0.00000  -0.28909   0.00000   0.00000   0.00000
   9        3PZ         0.00000  -0.00000  -0.50192   0.00000   0.00000
  10        4S          0.00000   0.00000   0.16629   0.00000   0.00000
  11        4PX        -0.01369   0.00000   0.00000  -0.00000  -0.20128
  12        4PY         0.00000  -0.01369  -0.00000   0.00000   0.00000
  13        4PZ         0.00000  -0.00000   0.09636   0.00000   0.00000
  14        5XX         0.00000   0.07745  -0.26606   0.00000   0.00000
  15        5YY         0.00000  -0.07745  -0.26606   0.00000   0.00000
  16        5ZZ         0.00000   0.00000   0.64198   0.00000   0.00000
  17        5XY         0.08943   0.00000   0.00000  -0.00000  -0.53339
  18        5XZ         0.11487   0.00000   0.00000   0.00000   0.36248
  19        5YZ         0.00000   0.11487   0.00000   0.00000   0.00000
  20 2   H  1S          0.00000   0.05381   0.22137   0.00000   0.00000
  21        2S          0.00000   0.15797  -0.17688   0.00000   0.00000
  22        3PX        -0.05359   0.00000   0.00000   0.58157  -0.29275
  23        3PY         0.00000  -0.09766   0.03385   0.00000   0.00000
  24        3PZ         0.00000   0.36595   0.18710   0.00000   0.00000
  25 3   H  1S          0.04660  -0.02691   0.22137  -0.00000  -0.55085
  26        2S          0.13680  -0.07898  -0.17688   0.00000   0.19355
  27        3PX        -0.08664   0.01908   0.02931  -0.29079  -0.36279
  28        3PY         0.01908  -0.06461  -0.01692  -0.50366   0.04044
  29        3PZ         0.31692  -0.18297   0.18710  -0.00000   0.08193
  30 4   H  1S         -0.04660  -0.02691   0.22137   0.00000   0.55085
  31        2S         -0.13680  -0.07898  -0.17688  -0.00000  -0.19355
  32        3PX        -0.08664  -0.01908  -0.02931  -0.29079  -0.36279
  33        3PY        -0.01908  -0.06461  -0.01692   0.50366  -0.04044
  34        3PZ        -0.31692  -0.18297   0.18710   0.00000  -0.08193
  35 5   H  1S          0.00000   0.00000  -0.35079   0.00000   0.00000
  36        2S          0.00000  -0.00000   0.27857   0.00000   0.00000
  37        3PX         0.55566   0.00000   0.00000  -0.00000  -0.12933
  38        3PY         0.00000   0.55566  -0.00000   0.00000   0.00000
  39        3PZ         0.00000  -0.00000   0.26554   0.00000   0.00000
  40 6   H  1S          0.00000   0.00000   0.30898   0.00000   0.00000
  41        2S          0.00000   0.00000  -0.44787   0.00000   0.00000
[...]
  38        3PY         0.00016   0.00000   0.00000   0.00000   0.00000
  39        3PZ         0.00006   0.00000   0.00000  -0.00000   0.00006
  40 6   H  1S         -0.00000  -0.00000  -0.00000  -0.00000   0.00000
  41        2S         -0.00003  -0.00000  -0.00000  -0.00000   0.00000
  42        3PX        -0.00000   0.00000  -0.00000  -0.00000  -0.00000
  43        3PY         0.00000   0.00000   0.00000   0.00000   0.00000
  44        3PZ         0.00000   0.00000   0.00000  -0.00000   0.00000
                          26        27        28        29        30
  26        2S          0.11564
  27        3PX         0.00000   0.00018
  28        3PY         0.00000   0.00000   0.00015
  29        3PZ         0.00000   0.00000   0.00000   0.00040
  30 4   H  1S         -0.00552   0.00000   0.00004   0.00005   0.21548
  31        2S         -0.01401   0.00000   0.00017   0.00004   0.09969
  32        3PX        -0.00000   0.00000   0.00000   0.00000   0.00000
  33        3PY        -0.00006   0.00000   0.00000   0.00000   0.00000
  34        3PZ         0.00027  -0.00000   0.00000   0.00000   0.00000
  35 5   H  1S         -0.00546   0.00009   0.00000   0.00001  -0.00037
  36        2S         -0.01417   0.00029  -0.00000  -0.00008  -0.00556
  37        3PX        -0.00001   0.00000   0.00000   0.00000   0.00004
  38        3PY         0.00000   0.00000   0.00000   0.00000   0.00004
  39        3PZ         0.00022   0.00000   0.00000   0.00000   0.00001
  40 6   H  1S         -0.00000  -0.00000  -0.00000  -0.00000   0.00000
  41        2S         -0.00003  -0.00000  -0.00000  -0.00000   0.00000
  42        3PX        -0.00000   0.00000  -0.00000  -0.00000  -0.00000
  43        3PY         0.00000  -0.00000   0.00000   0.00000   0.00000
  44        3PZ         0.00000   0.00000   0.00000   0.00000   0.00000
                          31        32        33        34        35
  31        2S          0.11563
  32        3PX         0.00000   0.00018
  33        3PY         0.00000   0.00000   0.00034
  34        3PZ         0.00000   0.00000   0.00000   0.00021
  35 5   H  1S         -0.00546   0.00009   0.00000   0.00000   0.21498
  36        2S         -0.01417   0.00030  -0.00006  -0.00002   0.10076
  37        3PX        -0.00001   0.00000   0.00000   0.00000   0.00000
  38        3PY         0.00017   0.00000   0.00000   0.00000   0.00000
  39        3PZ         0.00005   0.00000   0.00000   0.00000   0.00000
  40 6   H  1S         -0.00000  -0.00000  -0.00000  -0.00000  -0.00000
  41        2S         -0.00003  -0.00000  -0.00000  -0.00000  -0.00012
  42        3PX        -0.00000   0.00000  -0.00000  -0.00000   0.00000
  43        3PY         0.00000   0.00000   0.00000   0.00000   0.00000
  44        3PZ         0.00000   0.00000   0.00000   0.00000   0.00000
                          36        37        38        39        40
  36        2S          0.11865
  37        3PX         0.00000   0.00044
  38        3PY         0.00000   0.00000   0.00015
  39        3PZ         0.00000   0.00000   0.00000   0.00015
  40 6   H  1S          0.00017   0.00000   0.00000   0.00000   0.18663
  41        2S          0.00102   0.00004   0.00000  -0.00000   0.18423
  42        3PX         0.00001  -0.00000   0.00000   0.00000   0.00000
  43        3PY         0.00000  -0.00000   0.00000   0.00000   0.00000
  44        3PZ         0.00000  -0.00000   0.00000   0.00000   0.00000
                          41        42        43        44
  41        2S          0.41970
  42        3PX         0.00000   0.00000
  43        3PY         0.00000   0.00000   0.00000
  44        3PZ         0.00000   0.00000   0.00000   0.00000
     Gross orbital populations:
                         Total     Alpha     Beta      Spin
   1 1   C  1S          1.99178   0.99589   0.99589   0.00000
   2        2S          0.68417   0.34232   0.34184   0.00048
   3        2PX         0.71183   0.35832   0.35351   0.00481
   4        2PY         0.71093   0.35557   0.35536   0.00021
   5        2PZ         0.71093   0.35557   0.35536   0.00021
   6        3S          0.67492   0.33829   0.33663   0.00166
   7        3PX         0.33840   0.17183   0.16657   0.00526
   8        3PY         0.34130   0.17064   0.17066  -0.00003
   9        3PZ         0.34131   0.17064   0.17067  -0.00002
  10        4S          0.02482   0.01494   0.00988   0.00506
  11        4PX         0.04047   0.02294   0.01752   0.00542
  12        4PY         0.03293   0.01640   0.01653  -0.00013
  13        4PZ         0.03293   0.01640   0.01653  -0.00013
  14        5XX        -0.00884  -0.00433  -0.00451   0.00018
  15        5YY        -0.01021  -0.00516  -0.00505  -0.00010
  16        5ZZ        -0.01021  -0.00516  -0.00505  -0.00010
  17        5XY         0.00277   0.00138   0.00139  -0.00001
  18        5XZ         0.00277   0.00138   0.00139  -0.00001
  19        5YZ         0.00553   0.00276   0.00276  -0.00000
  20 2   H  1S          0.52862   0.26430   0.26432  -0.00002
  21        2S          0.30727   0.15356   0.15371  -0.00016
  22        3PX         0.00291   0.00146   0.00145   0.00000
  23        3PY         0.00547   0.00273   0.00274  -0.00000
  24        3PZ         0.00348   0.00174   0.00174  -0.00000
  25 3   H  1S          0.52862   0.26430   0.26432  -0.00001
  26        2S          0.30727   0.15356   0.15371  -0.00016
  27        3PX         0.00292   0.00146   0.00146   0.00000
  28        3PY         0.00239   0.00119   0.00119   0.00000
  29        3PZ         0.00656   0.00328   0.00328  -0.00000
  30 4   H  1S          0.52863   0.26431   0.26432  -0.00001
  31        2S          0.30726   0.15355   0.15371  -0.00016
  32        3PX         0.00292   0.00146   0.00146   0.00000
  33        3PY         0.00557   0.00278   0.00278  -0.00000
  34        3PZ         0.00338   0.00169   0.00169  -0.00000
  35 5   H  1S          0.52790   0.26417   0.26372   0.00045
  36        2S          0.31234   0.15264   0.15970  -0.00706
  37        3PX         0.00722   0.00369   0.00353   0.00016
  38        3PY         0.00238   0.00119   0.00119   0.00000
  39        3PZ         0.00238   0.00119   0.00119   0.00000
  40 6   H  1S          0.37309   0.37294   0.00015   0.37279
  41        2S          0.61285   0.61213   0.00072   0.61141
  42        3PX         0.00002   0.00001   0.00001   0.00001
  43        3PY         0.00000   0.00000   0.00000   0.00000
  44        3PZ         0.00000   0.00000   0.00000   0.00000
          Condensed to atoms (all electrons):
               1          2          3          4          5          6
     1  C    5.044844   0.391153   0.391155   0.391158   0.390077   0.010157
     2  H    0.391153   0.531228  -0.024817  -0.024812  -0.024960  -0.000034
     3  H    0.391155  -0.024817   0.531226  -0.024817  -0.024954  -0.000034
     4  H    0.391158  -0.024812  -0.024817   0.531215  -0.024955  -0.000034
     5  H    0.390077  -0.024960  -0.024954  -0.024955   0.535889   0.001124
     6  H    0.010157  -0.000034  -0.000034  -0.000034   0.001124   0.974786
          Atomic-Atomic Spin Densities.
               1          2          3          4          5          6
     1  C    0.013598  -0.000392  -0.000392  -0.000391   0.000680   0.009646
     2  H   -0.000392  -0.000089  -0.000040  -0.000040   0.000418  -0.000025
     3  H   -0.000392  -0.000040  -0.000088  -0.000040   0.000417  -0.000025
     4  H   -0.000391  -0.000040  -0.000040  -0.000086   0.000417  -0.000025
     5  H    0.000680   0.000418   0.000417   0.000417  -0.008630   0.000243
     6  H    0.009646  -0.000025  -0.000025  -0.000025   0.000243   0.974395
 Mulliken charges and spin densities:
               1          2
     1  C   -0.618542   0.022749
     2  H    0.152242  -0.000169
     3  H    0.152242  -0.000168
     4  H    0.152245  -0.000166
     5  H    0.147778  -0.006455
     6  H    0.014035   0.984209
 Sum of Mulliken charges =  -0.00000   1.00000
 Mulliken charges and spin densities with hydrogens summed into heavy atoms:
               1          2
     1  C   -0.000000   1.000000
 Electronic spatial extent (au):  <R**2>=             83.0569
 Charge=             -0.0000 electrons
 Dipole moment (field-independent basis, Debye):
    X=              0.0838    Y=             -0.0000    Z=             -0.0000  Tot=              0.0838
 Quadrupole moment (field-independent basis, Debye-Ang):
   XX=             -9.3638   YY=             -9.8315   ZZ=             -9.8317
   XY=             -0.0001   XZ=              0.0001   YZ=              0.0000
 Traceless Quadrupole moment (field-independent basis, Debye-Ang):
   XX=              0.3118   YY=             -0.1558   ZZ=             -0.1560
   XY=             -0.0001   XZ=              0.0001   YZ=              0.0000
 Octapole moment (field-independent basis, Debye-Ang**2):
  XXX=             -1.5482  YYY=              0.0221  ZZZ=             -0.5652  XYY=             -1.8827
  XXY=              0.0026  XXZ=             -0.0001  XZZ=             -1.8825  YZZ=             -0.0246
  YYZ=              0.5652  XYZ=             -0.0009
 Hexadecapole moment (field-independent basis, Debye-Ang**3):
 XXXX=           -103.4285 YYYY=            -18.4282 ZZZZ=            -18.4281 XXXY=             -0.0012
 XXXZ=              0.0002 YYYX=             -0.0226 YYYZ=             -0.0015 ZZZX=              0.5183
 ZZZY=              0.0006 XXYY=            -21.5397 XXZZ=            -21.5398 YYZZ=             -6.1427
 XXYZ=              0.0017 YYXZ=             -0.5180 ZZXY=              0.0218
 N-N= 1.484098564108D+01 E-N=-1.236949378102D+02  KE= 4.057437125819D+01
 Orbital energies and kinetic energies (alpha):
                                 1                 2
   1         O               -10.171854         15.880997
   2         O                -0.695451          1.276939
   3         O                -0.394509          0.940980
   4         O                -0.393262          0.958115
   5         O                -0.393250          0.958111
   6         O                -0.318614          0.533541
   7         V                 0.020168          0.363891
   8         V                 0.061039          0.231289
   9         V                 0.061052          0.231296
  10         V                 0.073643          0.254372
  11         V                 0.181690          0.809025
  12         V                 0.181699          0.809022
  13         V                 0.183725          0.855347
  14         V                 0.277118          1.103820
  15         V                 0.638522          1.865267
  16         V                 0.638525          1.865283
  17         V                 0.643258          1.877178
  18         V                 0.752344          1.798214
  19         V                 0.910456          2.282902
  20         V                 0.910473          2.282945
  21         V                 0.931173          2.295451
  22         V                 1.054097          2.498775
  23         V                 1.123536          2.087173
  24         V                 1.358151          2.345956
  25         V                 1.358167          2.345971
  26         V                 1.946328          2.751019
  27         V                 1.946329          2.751019
  28         V                 1.969584          2.784760
  29         V                 2.043011          2.833816
  30         V                 2.043220          2.833857
  31         V                 2.043229          2.833867
  32         V                 2.084805          3.187992
  33         V                 2.084812          3.188004
  34         V                 2.087063          3.191145
  35         V                 2.624148          3.516057
  36         V                 2.624193          3.516115
  37         V                 2.629575          3.515725
  38         V                 2.904315          3.893379
  39         V                 2.904351          3.893426
  40         V                 3.165373          4.741043
  41         V                 3.413602          5.067264
  42         V                 3.413618          5.067284
  43         V                 3.421056          5.065527
  44         V                 4.424225          9.903581
 Orbital energies and kinetic energies (beta):
                                 1                 2
   1         O               -10.171703         15.881185
   2         O                -0.695043          1.275769
   3         O                -0.393162          0.957777
   4         O                -0.393151          0.957758
   5         O                -0.393105          0.953198
   6         V                -0.060322          0.330280
   7         V                 0.023949          0.361006
   8         V                 0.060400          0.230707
   9         V                 0.060412          0.230715
  10         V                 0.084206          0.274070
  11         V                 0.181640          0.809260
  12         V                 0.181649          0.809258
  13         V                 0.187938          0.875127
  14         V                 0.276415          1.102378
  15         V                 0.638537          1.865393
  16         V                 0.638540          1.865408
  17         V                 0.648720          1.847439
  18         V                 0.885982          2.185202
  19         V                 0.910505          2.283387
  20         V                 0.910522          2.283430
  21         V                 1.000890          2.048654
  22         V                 1.056308          2.556902
  23         V                 1.133794          2.076508
  24         V                 1.358466          2.345890
  25         V                 1.358481          2.345906
  26         V                 2.043004          2.833816
  27         V                 2.043215          2.833860
  28         V                 2.043224          2.833870
  29         V                 2.084508          3.186523
  30         V                 2.084514          3.186536
  31         V                 2.087086          3.190592
  32         V                 2.188613          2.752415
  33         V                 2.188613          2.752415
  34         V                 2.201727          2.785533
  35         V                 2.624146          3.516145
  36         V                 2.624190          3.516203
  37         V                 2.630479          3.514783
  38         V                 2.904449          3.893445
  39         V                 2.904485          3.893491
  40         V                 3.165449          4.740815
  41         V                 3.413729          5.067284
  42         V                 3.413746          5.067304
  43         V                 3.421389          5.065588
  44         V                 4.424589          9.903513
 Total kinetic energy from orbitals= 4.057437125819D+01
                          Isotropic Fermi Contact Couplings
        Atom                 a.u.       MegaHertz       Gauss      10(-4) cm-1
     1  C(13)              0.00391       4.39488       1.56820       1.46597
     2  H(1)              -0.00001      -0.03688      -0.01316      -0.01230
     3  H(1)              -0.00001      -0.03433      -0.01225      -0.01145
     4  H(1)              -0.00001      -0.03151      -0.01124      -0.01051
     5  H(1)               0.00056       2.50858       0.89513       0.83677
     6  H(1)               0.30034    1342.47168     479.02726     447.80035
 --------------------------------------------------------
       Center         ----  Spin Dipole Couplings  ----
                      3XX-RR        3YY-RR        3ZZ-RR
 --------------------------------------------------------
     1   Atom        0.015823     -0.007912     -0.007912
     2   Atom        0.003607     -0.001436     -0.002170
     3   Atom        0.003604     -0.002572     -0.001032
     4   Atom        0.003602     -0.001398     -0.002204
     5   Atom        0.019879     -0.009940     -0.009940
     6   Atom        0.000269     -0.000134     -0.000134
 --------------------------------------------------------
                        XY            XZ            YZ
 --------------------------------------------------------
     1   Atom        0.000016     -0.000000     -0.000000
     2   Atom        0.001489     -0.000887     -0.000678
     3   Atom        0.000026      0.001730      0.000023
     4   Atom       -0.001509     -0.000844      0.000656
     5   Atom       -0.000008     -0.000000     -0.000000
     6   Atom        0.000000     -0.000000      0.000000
 --------------------------------------------------------


 ---------------------------------------------------------------------------------
              Anisotropic Spin Dipole Couplings in Principal Axis System
 ---------------------------------------------------------------------------------

       Atom             a.u.   MegaHertz   Gauss  10(-4) cm-1        Axes

              Baa    -0.0079    -1.062    -0.379    -0.354 -0.0005  0.7431  0.6692
     1 C(13)  Bbb    -0.0079    -1.062    -0.379    -0.354  0.0005 -0.6692  0.7431
              Bcc     0.0158     2.123     0.758     0.708  1.0000  0.0007 -0.0000
 
              Baa    -0.0026    -1.374    -0.490    -0.458 -0.0001  0.5120  0.8590
     2 H(1)   Bbb    -0.0016    -0.858    -0.306    -0.286 -0.3153  0.8151 -0.4859
              Bcc     0.0042     2.232     0.796     0.744  0.9490  0.2709 -0.1614
 
              Baa    -0.0026    -1.373    -0.490    -0.458 -0.0002  0.9999 -0.0145
     3 H(1)   Bbb    -0.0016    -0.857    -0.306    -0.286 -0.3152  0.0137  0.9489
              Bcc     0.0042     2.230     0.796     0.744  0.9490  0.0047  0.3152
 
              Baa    -0.0026    -1.372    -0.489    -0.458  0.0001 -0.4878  0.8729
     4 H(1)   Bbb    -0.0016    -0.856    -0.306    -0.286  0.3151  0.8285  0.4630
              Bcc     0.0042     2.228     0.795     0.743  0.9491 -0.2750 -0.1538
 
              Baa    -0.0099    -5.303    -1.892    -1.769  0.0002  0.7035  0.7107
     5 H(1)   Bbb    -0.0099    -5.303    -1.892    -1.769  0.0002  0.7107 -0.7035
              Bcc     0.0199    10.607     3.785     3.538  1.0000 -0.0003 -0.0000
 
              Baa    -0.0001    -0.072    -0.026    -0.024  0.0003 -0.6941  0.7198
     6 H(1)   Bbb    -0.0001    -0.072    -0.026    -0.024 -0.0003  0.7198  0.6941
              Bcc     0.0003     0.143     0.051     0.048  1.0000  0.0004 -0.0000
 

 ---------------------------------------------------------------------------------

 No NMR shielding tensors so no spin-rotation constants.
 Leave Link  601 at Fri Sep 13 21:21:01 2024, MaxMem=   268435456 cpu:         2.4
 (Enter /g100_work/pMI24_ChiCa/g09d1/g09d01/d01/build-node-6-2-59348/src/main/l9999.exe)
 1\1\GINC-R500N001\POpt\UB3LYP\6-31+G(d,p)\C1H5(2)\ECABIATI\13-Sep-2024
 \1\\#p B3LYP/6-31+g(d,p) opt=(Z-matrix,maxcycle=50,maxstep=35) tempera
 ture=300 pop=full gfinput\\ch4+h\\0,2\C\H,1,hc2\H,1,hc3,2,hch3\H,1,hc4
 ,2,hch4,3,dih4,0\H,1,hc5,2,hch5,3,dih5,0\X,5,xxh6,1,xxhc6,4,dih6,0\H,5
 ,hh7,6,hhxx7,1,dih7,0\\hc2=1.09278319\hc3=1.09278086\hch3=109.4799525\
 hc4=1.09276746\hch4=109.48519459\dih4=120.02619523\hc5=1.09291206\hch5
 =109.45699041\dih5=-119.98499089\xxh6=0.99998139\xxhc6=89.96507496\dih
 6=70.15420171\hh7=2.60606908\hhxx7=90.01510709\dih7=180.1237496\\Versi
 on=EM64L-G09RevD.01\State=2-A\HF=-41.0268569\S2=0.750051\S2-1=0.\S2A=0
 .75\RMSD=3.012e-09\RMSF=5.551e-06\Dipole=-0.0155215,0.026971,-0.010939
 6\Quadrupole=-0.0388524,0.1165185,-0.0776661,-0.1338705,0.0543555,-0.0
 942407\PG=C01 [X(C1H5)]\\@


 IF IT'S NOT TRUE, IT'S WELL INVENTED -- DANTE
 Job cpu time:       0 days  0 hours  7 minutes 23.6 seconds.
 File lengths (MBytes):  RWF=      5 Int=      0 D2E=      0 Chk=      1 Scr=      1
 Normal termination of Gaussian 09 at Fri Sep 13 21:21:01 2024.
