 Entering Gaussian System, Link 0=/programs/64bit/g09/g09-gfortran/bin/g09
 Input=ethene.com
 Output=ethene.log
 Initial command:
 /programs/64bit/g09/g09-gfortran/bin/l1.exe /home/ospite/Desktop/MMfP/Project8/gaussian_simulations/Gau-3261.inp -scrdir=/home/ospite/Desktop/MMfP/Project8/gaussian_simulations/
 Entering Link 1 = /programs/64bit/g09/g09-gfortran/bin/l1.exe PID=      3262.
  
 Copyright (c) 1988,1990,1992,1993,1995,1998,2003,2009, Gaussian, Inc.
                  All Rights Reserved.
  
 This is part of the Gaussian(R) 09 program.  It is based on
 the Gaussian(R) 03 system (copyright 2003, Gaussian, Inc.),
 the Gaussian(R) 98 system (copyright 1998, Gaussian, Inc.),
 the Gaussian(R) 94 system (copyright 1995, Gaussian, Inc.),
 the Gaussian 92(TM) system (copyright 1992, Gaussian, Inc.),
 the Gaussian 90(TM) system (copyright 1990, Gaussian, Inc.),
 the Gaussian 88(TM) system (copyright 1988, Gaussian, Inc.),
 the Gaussian 86(TM) system (copyright 1986, Carnegie Mellon
 University), and the Gaussian 82(TM) system (copyright 1983,
 Carnegie Mellon University). Gaussian is a federally registered
 trademark of Gaussian, Inc.
  
 This software contains proprietary and confidential information,
 including trade secrets, belonging to Gaussian, Inc.
  
 This software is provided under written license and may be
 used, copied, transmitted, or stored only in accord with that
 written license.
  
 The following legend is applicable only to US Government
 contracts under FAR:
  
                    RESTRICTED RIGHTS LEGEND
  
 Use, reproduction and disclosure by the US Government is
 subject to restrictions as set forth in subparagraphs (a)
 and (c) of the Commercial Computer Software - Restricted
 Rights clause in FAR 52.227-19.
  
 Gaussian, Inc.
 340 Quinnipiac St., Bldg. 40, Wallingford CT 06492
  
  
 ---------------------------------------------------------------
 Warning -- This program may not be used in any manner that
 competes with the business of Gaussian, Inc. or will provide
 assistance to any competitor of Gaussian, Inc.  The licensee
 of this program is prohibited from giving any competitor of
 Gaussian, Inc. access to this program.  By using this program,
 the user acknowledges that Gaussian, Inc. is engaged in the
 business of creating and licensing software in the field of
 computational chemistry and represents and warrants to the
 licensee that it is not a competitor of Gaussian, Inc. and that
 it will not use this program in any manner prohibited above.
 ---------------------------------------------------------------
  

 Cite this work as:
 Gaussian 09, Revision A.02,
 M. J. Frisch, G. W. Trucks, H. B. Schlegel, G. E. Scuseria, 
 M. A. Robb, J. R. Cheeseman, G. Scalmani, V. Barone, B. Mennucci, 
 G. A. Petersson, H. Nakatsuji, M. Caricato, X. Li, H. P. Hratchian, 
 A. F. Izmaylov, J. Bloino, G. Zheng, J. L. Sonnenberg, M. Hada, 
 M. Ehara, K. Toyota, R. Fukuda, J. Hasegawa, M. Ishida, T. Nakajima, 
 Y. Honda, O. Kitao, H. Nakai, T. Vreven, J. A. Montgomery, Jr., 
 J. E. Peralta, F. Ogliaro, M. Bearpark, J. J. Heyd, E. Brothers, 
 K. N. Kudin, V. N. Staroverov, R. Kobayashi, J. Normand, 
 K. Raghavachari, A. Rendell, J. C. Burant, S. S. Iyengar, J. Tomasi, 
 M. Cossi, N. Rega, J. M. Millam, M. Klene, J. E. Knox, J. B. Cross, 
 V. Bakken, C. Adamo, J. Jaramillo, R. Gomperts, R. E. Stratmann, 
 O. Yazyev, A. J. Austin, R. Cammi, C. Pomelli, J. W. Ochterski, 
 R. L. Martin, K. Morokuma, V. G. Zakrzewski, G. A. Voth, 
 P. Salvador, J. J. Dannenberg, S. Dapprich, A. D. Daniels, 
 O. Farkas, J. B. Foresman, J. V. Ortiz, J. Cioslowski, 
 and D. J. Fox, Gaussian, Inc., Wallingford CT, 2009.
 
 ******************************************
 Gaussian 09:  EM64L-G09RevA.02 11-Jun-2009
                20-Aug-2024 
 ******************************************
 ---------------------------------------------
 #p B3LYP/6-31g(d,p) opt freq pop=full gfinput
 ---------------------------------------------
 1/14=-1,18=20,19=15,26=3,38=1/1,3;
 2/9=110,12=2,17=6,18=5,40=1/2;
 3/5=1,6=6,7=101,11=2,16=1,24=10,25=1,30=1,71=1,74=-5/1,2,3;
 4//1;
 5/5=2,38=5/2;
 6/7=3,28=1/1;
 7//1,2,3,16;
 1/14=-1,18=20,19=15/3(2);
 2/9=110/2;
 99//99;
 2/9=110/2;
 3/5=1,6=6,7=101,11=2,16=1,25=1,30=1,71=1,74=-5/1,2,3;
 4/5=5,16=3/1;
 5/5=2,38=5/2;
 7//1,2,3,16;
 1/14=-1,18=20,19=15/3(-5);
 2/9=110/2;
 6/7=3,19=2,28=1/1;
 99/9=1/99;
 Leave Link    1 at Tue Aug 20 19:18:34 2024, MaxMem=          0 cpu:       0.1
 (Enter /programs/64bit/g09/g09-gfortran/bin/l101.exe)
 ------
 ethene
 ------
 Symbolic Z-matrix:
 Charge =  0 Multiplicity = 1
 c
 c                    1    cc2
 h                    1    hc3      2    hcc3
 h                    2    hc4      1    hcc4     3    dih4     0
 h                    2    hc5      1    hcc5     3    dih5     0
 h                    1    hc6      2    hcc6     3    dih6     0
       Variables:
  cc2                   1.335                    
  hc3                   1.089                    
  hcc3                120.                       
  hc4                   1.089                    
  hcc4                120.                       
  dih4                  0.                       
  hc5                   1.089                    
  hcc5                120.                       
  dih5                180.                       
  hc6                   1.089                    
  hcc6                120.                       
  dih6                180.                       
 
 NAtoms=      6 NQM=      6 NQMF=      0 NMic=      0 NMicF=      0 NTot=      6.
                    Isotopes and Nuclear Properties:
 (Nuclear quadrupole moments (NQMom) in fm**2, nuclear magnetic moments (NMagM)
  in nuclear magnetons)

  Atom         1           2           3           4           5           6
 IAtWgt=          12          12           1           1           1           1
 AtmWgt=  12.0000000  12.0000000   1.0078250   1.0078250   1.0078250   1.0078250
 NucSpn=           0           0           1           1           1           1
 AtZEff=   0.0000000   0.0000000   0.0000000   0.0000000   0.0000000   0.0000000
 NQMom=    0.0000000   0.0000000   0.0000000   0.0000000   0.0000000   0.0000000
 NMagM=    0.0000000   0.0000000   2.7928460   2.7928460   2.7928460   2.7928460
 Leave Link  101 at Tue Aug 20 19:18:34 2024, MaxMem=   33554432 cpu:       0.1
 (Enter /programs/64bit/g09/g09-gfortran/bin/l103.exe)

 GradGradGradGradGradGradGradGradGradGradGradGradGradGradGradGradGradGrad
 Berny optimization.
 Initialization pass.
                           ----------------------------
                           !    Initial Parameters    !
                           ! (Angstroms and Degrees)  !
 --------------------------                            --------------------------
 ! Name  Definition              Value          Derivative Info.                !
 --------------------------------------------------------------------------------
 ! R1    R(1,2)                  1.335          estimate D2E/DX2                !
 ! R2    R(1,3)                  1.089          estimate D2E/DX2                !
 ! R3    R(1,6)                  1.089          estimate D2E/DX2                !
 ! R4    R(2,4)                  1.089          estimate D2E/DX2                !
 ! R5    R(2,5)                  1.089          estimate D2E/DX2                !
 ! A1    A(2,1,3)              120.0            estimate D2E/DX2                !
 ! A2    A(2,1,6)              120.0            estimate D2E/DX2                !
 ! A3    A(3,1,6)              120.0            estimate D2E/DX2                !
 ! A4    A(1,2,4)              120.0            estimate D2E/DX2                !
 ! A5    A(1,2,5)              120.0            estimate D2E/DX2                !
 ! A6    A(4,2,5)              120.0            estimate D2E/DX2                !
 ! D1    D(3,1,2,4)              0.0            estimate D2E/DX2                !
 ! D2    D(3,1,2,5)            180.0            estimate D2E/DX2                !
 ! D3    D(6,1,2,4)            180.0            estimate D2E/DX2                !
 ! D4    D(6,1,2,5)              0.0            estimate D2E/DX2                !
 --------------------------------------------------------------------------------
 Trust Radius=3.00D-01 FncErr=1.00D-07 GrdErr=1.00D-06
 Number of steps in this run=  25 maximum allowed number of steps= 100.
 GradGradGradGradGradGradGradGradGradGradGradGradGradGradGradGradGradGrad

 Leave Link  103 at Tue Aug 20 19:18:34 2024, MaxMem=   33554432 cpu:       0.0
 (Enter /programs/64bit/g09/g09-gfortran/bin/l202.exe)
                          Input orientation:                          
 ---------------------------------------------------------------------
 Center     Atomic      Atomic             Coordinates (Angstroms)
 Number     Number       Type             X           Y           Z
 ---------------------------------------------------------------------
      1          6           0        0.000000    0.000000    0.000000
      2          6           0        0.000000    0.000000    1.335000
      3          1           0        0.943102    0.000000   -0.544500
      4          1           0        0.943102    0.000000    1.879500
      5          1           0       -0.943102    0.000000    1.879500
      6          1           0       -0.943102    0.000000   -0.544500
 ---------------------------------------------------------------------
                    Distance matrix (angstroms):
                    1          2          3          4          5
     1  C    0.000000
     2  C    1.335000   0.000000
     3  H    1.089000   2.102846   0.000000
     4  H    2.102846   1.089000   2.424000   0.000000
     5  H    2.102846   1.089000   3.071407   1.886203   0.000000
     6  H    1.089000   2.102846   1.886203   3.071407   2.424000
                    6
     6  H    0.000000
 Stoichiometry    C2H4
 Framework group  D2H[C2"(C.C),SG(H4)]
 Deg. of freedom     3
 Full point group                 D2H     NOp   8
 Largest Abelian subgroup         D2H     NOp   8
 Largest concise Abelian subgroup D2      NOp   4
                         Standard orientation:                         
 ---------------------------------------------------------------------
 Center     Atomic      Atomic             Coordinates (Angstroms)
 Number     Number       Type             X           Y           Z
 ---------------------------------------------------------------------
      1          6           0       -0.000000    0.000000    0.667500
      2          6           0        0.000000    0.000000   -0.667500
      3          1           0       -0.000000    0.943102    1.212000
      4          1           0        0.000000    0.943102   -1.212000
      5          1           0       -0.000000   -0.943102   -1.212000
      6          1           0       -0.000000   -0.943102    1.212000
 ---------------------------------------------------------------------
 Rotational constants (GHZ):    140.9467411     30.4168424     25.0178873
 Leave Link  202 at Tue Aug 20 19:18:35 2024, MaxMem=   33554432 cpu:       0.0
 (Enter /programs/64bit/g09/g09-gfortran/bin/l301.exe)
 Standard basis: 6-31G(d,p) (6D, 7F)
 Ernie: Thresh=  0.10000D-02 Tol=  0.10000D-05 Strict=F.
 AO basis set in the form of general basis input (Overlap normalization):
      1 0
 S   6 1.00       0.000000000000
      0.3047524880D+04  0.1834737132D-02
      0.4573695180D+03  0.1403732281D-01
      0.1039486850D+03  0.6884262226D-01
      0.2921015530D+02  0.2321844432D+00
      0.9286662960D+01  0.4679413484D+00
      0.3163926960D+01  0.3623119853D+00
 SP   3 1.00       0.000000000000
      0.7868272350D+01 -0.1193324198D+00  0.6899906659D-01
      0.1881288540D+01 -0.1608541517D+00  0.3164239610D+00
      0.5442492580D+00  0.1143456438D+01  0.7443082909D+00
 SP   1 1.00       0.000000000000
      0.1687144782D+00  0.1000000000D+01  0.1000000000D+01
 D   1 1.00       0.000000000000
      0.8000000000D+00  0.1000000000D+01
 ****
      2 0
 S   6 1.00       0.000000000000
      0.3047524880D+04  0.1834737132D-02
      0.4573695180D+03  0.1403732281D-01
      0.1039486850D+03  0.6884262226D-01
      0.2921015530D+02  0.2321844432D+00
      0.9286662960D+01  0.4679413484D+00
      0.3163926960D+01  0.3623119853D+00
 SP   3 1.00       0.000000000000
      0.7868272350D+01 -0.1193324198D+00  0.6899906659D-01
      0.1881288540D+01 -0.1608541517D+00  0.3164239610D+00
      0.5442492580D+00  0.1143456438D+01  0.7443082909D+00
 SP   1 1.00       0.000000000000
      0.1687144782D+00  0.1000000000D+01  0.1000000000D+01
 D   1 1.00       0.000000000000
      0.8000000000D+00  0.1000000000D+01
 ****
      3 0
 S   3 1.00       0.000000000000
      0.1873113696D+02  0.3349460434D-01
      0.2825394365D+01  0.2347269535D+00
      0.6401216923D+00  0.8137573261D+00
 S   1 1.00       0.000000000000
      0.1612777588D+00  0.1000000000D+01
 P   1 1.00       0.000000000000
      0.1100000000D+01  0.1000000000D+01
 ****
      4 0
 S   3 1.00       0.000000000000
      0.1873113696D+02  0.3349460434D-01
      0.2825394365D+01  0.2347269535D+00
      0.6401216923D+00  0.8137573261D+00
 S   1 1.00       0.000000000000
      0.1612777588D+00  0.1000000000D+01
 P   1 1.00       0.000000000000
      0.1100000000D+01  0.1000000000D+01
 ****
      5 0
 S   3 1.00       0.000000000000
      0.1873113696D+02  0.3349460434D-01
      0.2825394365D+01  0.2347269535D+00
      0.6401216923D+00  0.8137573261D+00
 S   1 1.00       0.000000000000
      0.1612777588D+00  0.1000000000D+01
 P   1 1.00       0.000000000000
      0.1100000000D+01  0.1000000000D+01
 ****
      6 0
 S   3 1.00       0.000000000000
      0.1873113696D+02  0.3349460434D-01
      0.2825394365D+01  0.2347269535D+00
      0.6401216923D+00  0.8137573261D+00
 S   1 1.00       0.000000000000
      0.1612777588D+00  0.1000000000D+01
 P   1 1.00       0.000000000000
      0.1100000000D+01  0.1000000000D+01
 ****

 There are    12 symmetry adapted basis functions of AG  symmetry.
 There are     2 symmetry adapted basis functions of B1G symmetry.
 There are     4 symmetry adapted basis functions of B2G symmetry.
 There are     7 symmetry adapted basis functions of B3G symmetry.
 There are     2 symmetry adapted basis functions of AU  symmetry.
 There are    12 symmetry adapted basis functions of B1U symmetry.
 There are     7 symmetry adapted basis functions of B2U symmetry.
 There are     4 symmetry adapted basis functions of B3U symmetry.
 Integral buffers will be    131072 words long.
 Raffenetti 2 integral format.
 Two-electron integral symmetry is turned on.
    50 basis functions,    84 primitive gaussians,    50 cartesian basis functions
     8 alpha electrons        8 beta electrons
       nuclear repulsion energy        33.3141103821 Hartrees.
 IExCor=  402 DFT=T Ex+Corr=B3LYP ExCW=0 ScaHFX=  0.200000
 ScaDFX=  0.800000  0.720000  1.000000  0.810000 ScalE2=  1.000000  1.000000
 IRadAn=      0 IRanWt=     -1 IRanGd=            0 ICorTp=0
 NAtoms=    6 NActive=    6 NUniq=    2 SFac= 3.00D+00 NAtFMM=   80 NAOKFM=F Big=F
 Leave Link  301 at Tue Aug 20 19:18:35 2024, MaxMem=   33554432 cpu:       0.1
 (Enter /programs/64bit/g09/g09-gfortran/bin/l302.exe)
 NPDir=0 NMtPBC=     1 NCelOv=     1 NCel=       1 NClECP=     1 NCelD=      1
         NCelK=      1 NCelE2=     1 NClLst=     1 CellRange=     0.0.
 One-electron integrals computed using PRISM.
 One-electron integral symmetry used in STVInt
 NBasis=    50 RedAO= T  NBF=    12     2     4     7     2    12     7     4
 NBsUse=    50 1.00D-06 NBFU=    12     2     4     7     2    12     7     4
 Precomputing XC quadrature grid using
 IXCGrd= 2 IRadAn=           0 IRanWt=          -1 IRanGd=           0 AccXCQ= 1.00D-10.
 NRdTot=     368 NPtTot=       46720 NUsed=       49387 NTot=       49419
 NSgBfM=    50    50    50    50    50 NAtAll=     6     6.
 Leave Link  302 at Tue Aug 20 19:18:35 2024, MaxMem=   33554432 cpu:       0.2
 (Enter /programs/64bit/g09/g09-gfortran/bin/l303.exe)
 DipDrv:  MaxL=1.
 Leave Link  303 at Tue Aug 20 19:18:35 2024, MaxMem=   33554432 cpu:       0.0
 (Enter /programs/64bit/g09/g09-gfortran/bin/l401.exe)
 Harris functional with IExCor=  402 diagonalized for initial guess.
 ExpMin= 1.61D-01 ExpMax= 3.05D+03 ExpMxC= 4.57D+02 IAcc=1 IRadAn=         1 AccDes= 0.00D+00
 HarFok:  IExCor=  402 AccDes= 0.00D+00 IRadAn=         1 IDoV= 1
 ScaDFX=  1.000000  1.000000  1.000000  1.000000
 FoFCou: FMM=F IPFlag=           0 FMFlag=      100000 FMFlg1=           0
         NFxFlg=           0 DoJE=T BraDBF=F KetDBF=T FulRan=T
         Omega=  0.000000  0.000000  1.000000  0.000000  0.000000 ICntrl=     500 IOpCl=  0
         NMat0=    1 NMatS0=    1 NMatT0=    0 NMatD0=    1 NMtDS0=    0 NMtDT0=    0
         I1Cent=           4 NGrid=           0.
 Petite list used in FoFCou.
 Harris En= -78.6398431553524    
 Initial guess orbital symmetries:
       Occupied  (AG) (B1U) (AG) (B1U) (B2U) (AG) (B3G) (B3U)
       Virtual   (B2G) (AG) (B2U) (B1U) (B3G) (B1U) (AG) (B3U)
                 (B2U) (B2G) (B1U) (AG) (B3G) (B2U) (B1U) (AG)
                 (B1U) (B3G) (B1G) (B3U) (AU) (AG) (B2U) (AG) (B3G)
                 (B1U) (B2G) (B2U) (B3U) (B1G) (B1U) (B2G) (B3G)
                 (AU) (AG) (B1U) (AG) (B2U) (B1U) (B3G) (AG) (B1U)
 The electronic state of the initial guess is 1-AG.
 Leave Link  401 at Tue Aug 20 19:18:35 2024, MaxMem=   33554432 cpu:       0.3
 (Enter /programs/64bit/g09/g09-gfortran/bin/l502.exe)
 Closed shell SCF:
 Requested convergence on RMS density matrix=1.00D-08 within 128 cycles.
 Requested convergence on MAX density matrix=1.00D-06.
 Requested convergence on             energy=1.00D-06.
 No special actions if energy rises.
 Using DIIS extrapolation, IDIIS=  1040.
 Integral symmetry usage will be decided dynamically.
        49320 words used for storage of precomputed grid.
 Keep R1 ints in memory in canonical form, NReq=1757164.
 IEnd=       75938 IEndB=       75938 NGot=    33554432 MDV=    32684207
 LenX=    32684207 LenY=    32681266
 Symmetry not used in FoFDir.
 MinBra= 0 MaxBra= 2 Meth= 1.
 IRaf=       0 NMat=   1 IRICut=       1 DoRegI=T DoRafI=F ISym2E= 0 JSym2E=0.
 Integral accuracy reduced to 1.0D-05 until final iterations.

 Cycle   1  Pass 0  IDiag  1:
 E= -78.4981623590463    
 DIIS: error= 5.63D-02 at cycle   1 NSaved=   1.
 NSaved= 1 IEnMin= 1 EnMin= -78.4981623590463     IErMin= 1 ErrMin= 5.63D-02
 ErrMax= 5.63D-02 EMaxC= 1.00D-01 BMatC= 8.12D-02 BMatP= 8.12D-02
 IDIUse=3 WtCom= 4.37D-01 WtEn= 5.63D-01
 Coeff-Com:  0.100D+01
 Coeff-En:   0.100D+01
 Coeff:      0.100D+01
 Gap=     0.277 Goal=   None    Shift=    0.000
 GapD=    0.277 DampG=1.000 DampE=0.500 DampFc=0.5000 IDamp=-1.
 Damping current iteration by 5.00D-01
 RMSDP=1.13D-02 MaxDP=1.25D-01              OVMax= 1.71D-01

 Cycle   2  Pass 0  IDiag  1:
 E= -78.5443416287272     Delta-E=       -0.046179269681 Rises=F Damp=T
 DIIS: error= 9.56D-03 at cycle   2 NSaved=   2.
 NSaved= 2 IEnMin= 2 EnMin= -78.5443416287272     IErMin= 2 ErrMin= 9.56D-03
 ErrMax= 9.56D-03 EMaxC= 1.00D-01 BMatC= 1.89D-03 BMatP= 8.12D-02
 IDIUse=3 WtCom= 9.04D-01 WtEn= 9.56D-02
 Coeff-Com:  0.203D-01 0.980D+00
 Coeff-En:   0.125D-01 0.987D+00
 Coeff:      0.196D-01 0.980D+00
 Gap=     0.287 Goal=   None    Shift=    0.000
 RMSDP=1.14D-03 MaxDP=8.48D-03 DE=-4.62D-02 OVMax= 8.63D-02

 Cycle   3  Pass 0  IDiag  1:
 E= -78.5930635625777     Delta-E=       -0.048721933851 Rises=F Damp=F
 DIIS: error= 9.64D-04 at cycle   3 NSaved=   3.
 NSaved= 3 IEnMin= 3 EnMin= -78.5930635625777     IErMin= 3 ErrMin= 9.64D-04
 ErrMax= 9.64D-04 EMaxC= 1.00D-01 BMatC= 1.51D-05 BMatP= 1.89D-03
 IDIUse=3 WtCom= 9.90D-01 WtEn= 9.64D-03
 Coeff-Com: -0.554D-02 0.362D-01 0.969D+00
 Coeff-En:   0.000D+00 0.000D+00 0.100D+01
 Coeff:     -0.549D-02 0.359D-01 0.970D+00
 Gap=     0.283 Goal=   None    Shift=    0.000
 RMSDP=8.47D-05 MaxDP=1.01D-03 DE=-4.87D-02 OVMax= 1.93D-03

 Cycle   4  Pass 0  IDiag  1:
 E= -78.5930786713719     Delta-E=       -0.000015108794 Rises=F Damp=F
 DIIS: error= 1.89D-04 at cycle   4 NSaved=   4.
 NSaved= 4 IEnMin= 4 EnMin= -78.5930786713719     IErMin= 4 ErrMin= 1.89D-04
 ErrMax= 1.89D-04 EMaxC= 1.00D-01 BMatC= 7.64D-07 BMatP= 1.51D-05
 IDIUse=3 WtCom= 9.98D-01 WtEn= 1.89D-03
 Coeff-Com: -0.966D-03 0.206D-02 0.186D+00 0.813D+00
 Coeff-En:   0.000D+00 0.000D+00 0.000D+00 0.100D+01
 Coeff:     -0.964D-03 0.206D-02 0.186D+00 0.813D+00
 Gap=     0.284 Goal=   None    Shift=    0.000
 RMSDP=1.72D-05 MaxDP=1.85D-04 DE=-1.51D-05 OVMax= 2.81D-04

 Cycle   5  Pass 0  IDiag  1:
 E= -78.5930793889070     Delta-E=       -0.000000717535 Rises=F Damp=F
 DIIS: error= 1.49D-05 at cycle   5 NSaved=   5.
 NSaved= 5 IEnMin= 5 EnMin= -78.5930793889070     IErMin= 5 ErrMin= 1.49D-05
 ErrMax= 1.49D-05 EMaxC= 1.00D-01 BMatC= 7.09D-09 BMatP= 7.64D-07
 IDIUse=1 WtCom= 1.00D+00 WtEn= 0.00D+00
 Coeff-Com:  0.885D-04-0.850D-03 0.185D-04 0.751D-01 0.926D+00
 Coeff:      0.885D-04-0.850D-03 0.185D-04 0.751D-01 0.926D+00
 Gap=     0.284 Goal=   None    Shift=    0.000
 RMSDP=1.57D-06 MaxDP=1.69D-05 DE=-7.18D-07 OVMax= 3.37D-05

 Initial convergence to 1.0D-05 achieved.  Increase integral accuracy.
 Cycle   6  Pass 1  IDiag  1:
 E= -78.5931050880694     Delta-E=       -0.000025699162 Rises=F Damp=F
 DIIS: error= 4.38D-06 at cycle   1 NSaved=   1.
 NSaved= 1 IEnMin= 1 EnMin= -78.5931050880694     IErMin= 1 ErrMin= 4.38D-06
 ErrMax= 4.38D-06 EMaxC= 1.00D-01 BMatC= 3.41D-10 BMatP= 3.41D-10
 IDIUse=1 WtCom= 1.00D+00 WtEn= 0.00D+00
 Coeff-Com:  0.100D+01
 Coeff:      0.100D+01
 Gap=     0.284 Goal=   None    Shift=    0.000
 RMSDP=1.57D-06 MaxDP=1.69D-05 DE=-2.57D-05 OVMax= 1.08D-05

 Cycle   7  Pass 1  IDiag  1:
 E= -78.5931050884960     Delta-E=       -0.000000000427 Rises=F Damp=F
 DIIS: error= 3.87D-07 at cycle   2 NSaved=   2.
 NSaved= 2 IEnMin= 2 EnMin= -78.5931050884960     IErMin= 2 ErrMin= 3.87D-07
 ErrMax= 3.87D-07 EMaxC= 1.00D-01 BMatC= 5.34D-12 BMatP= 3.41D-10
 IDIUse=1 WtCom= 1.00D+00 WtEn= 0.00D+00
 Coeff-Com: -0.313D-01 0.103D+01
 Coeff:     -0.313D-01 0.103D+01
 Gap=     0.284 Goal=   None    Shift=    0.000
 RMSDP=7.29D-08 MaxDP=9.75D-07 DE=-4.27D-10 OVMax= 1.37D-06

 Cycle   8  Pass 1  IDiag  1:
 E= -78.5931050884984     Delta-E=       -0.000000000002 Rises=F Damp=F
 DIIS: error= 3.55D-07 at cycle   3 NSaved=   3.
 NSaved= 3 IEnMin= 3 EnMin= -78.5931050884984     IErMin= 3 ErrMin= 3.55D-07
 ErrMax= 3.55D-07 EMaxC= 1.00D-01 BMatC= 3.46D-12 BMatP= 5.34D-12
 IDIUse=1 WtCom= 1.00D+00 WtEn= 0.00D+00
 Coeff-Com: -0.233D-01 0.470D+00 0.553D+00
 Coeff:     -0.233D-01 0.470D+00 0.553D+00
 Gap=     0.284 Goal=   None    Shift=    0.000
 RMSDP=3.76D-08 MaxDP=4.28D-07 DE=-2.44D-12 OVMax= 5.70D-07

 Cycle   9  Pass 1  IDiag  1:
 E= -78.5931050885019     Delta-E=       -0.000000000004 Rises=F Damp=F
 DIIS: error= 3.85D-08 at cycle   4 NSaved=   4.
 NSaved= 4 IEnMin= 4 EnMin= -78.5931050885019     IErMin= 4 ErrMin= 3.85D-08
 ErrMax= 3.85D-08 EMaxC= 1.00D-01 BMatC= 4.12D-14 BMatP= 3.46D-12
 IDIUse=1 WtCom= 1.00D+00 WtEn= 0.00D+00
 Coeff-Com: -0.897D-03-0.312D-02 0.940D-01 0.910D+00
 Coeff:     -0.897D-03-0.312D-02 0.940D-01 0.910D+00
 Gap=     0.284 Goal=   None    Shift=    0.000
 RMSDP=4.33D-09 MaxDP=5.08D-08 DE=-3.51D-12 OVMax= 7.37D-08

 SCF Done:  E(RB3LYP) =  -78.5931050885     A.U. after    9 cycles
             Convg  =    0.4326D-08             -V/T =  2.0107
 KE= 7.776010833236D+01 PE=-2.480298003224D+02 EE= 5.836247651952D+01
 Leave Link  502 at Tue Aug 20 19:18:37 2024, MaxMem=   33554432 cpu:       1.7
 (Enter /programs/64bit/g09/g09-gfortran/bin/l601.exe)
 Copying SCF densities to generalized density rwf, IOpCl= 0 IROHF=0.

 **********************************************************************

            Population analysis using the SCF density.

 **********************************************************************

 Orbital symmetries:
       Occupied  (AG) (B1U) (AG) (B1U) (B2U) (AG) (B3G) (B3U)
       Virtual   (B2G) (AG) (B2U) (B1U) (B3G) (B1U) (AG) (B3U)
                 (B2U) (B2G) (AG) (B1U) (B2U) (B3G) (B1U) (AG)
                 (B1U) (B3G) (B1G) (B3U) (AU) (AG) (B2U) (AG) (B3G)
                 (B1U) (B2G) (B2U) (B3U) (B1G) (B1U) (B2G) (AU)
                 (B3G) (AG) (B1U) (AG) (B2U) (B1U) (B3G) (AG) (B1U)
 The electronic state is 1-AG.
 Alpha  occ. eigenvalues --  -10.18440 -10.18353  -0.75490  -0.57207  -0.46883
 Alpha  occ. eigenvalues --   -0.40736  -0.35534  -0.26644
 Alpha virt. eigenvalues --    0.01719   0.11665   0.14196   0.15948   0.24349
 Alpha virt. eigenvalues --    0.32412   0.47261   0.54898   0.57628   0.63752
 Alpha virt. eigenvalues --    0.64776   0.70030   0.83063   0.84339   0.90621
 Alpha virt. eigenvalues --    0.91478   1.10195   1.23037   1.38064   1.39720
 Alpha virt. eigenvalues --    1.52330   1.84170   1.86733   1.97174   1.98541
 Alpha virt. eigenvalues --    2.04286   2.14118   2.23617   2.34740   2.46170
 Alpha virt. eigenvalues --    2.50996   2.58697   2.69216   2.69784   2.72645
 Alpha virt. eigenvalues --    2.95690   3.18710   3.32457   3.50428   3.71825
 Alpha virt. eigenvalues --    4.17452   4.50177
     Molecular Orbital Coefficients:
                           1         2         3         4         5
                        (AG)--O  (B1U)--O   (AG)--O  (B1U)--O  (B2U)--O
     Eigenvalues --   -10.18440 -10.18353  -0.75490  -0.57207  -0.46883
   1 1   C  1S          0.70180   0.70216  -0.16030  -0.12426   0.00000
   2        2S          0.03431   0.03503   0.31077   0.25222   0.00000
   3        2PX         0.00000   0.00000   0.00000   0.00000   0.00000
   4        2PY         0.00000   0.00000   0.00000   0.00000   0.32566
   5        2PZ         0.00031  -0.00022  -0.10613   0.16654   0.00000
   6        3S         -0.00589  -0.01258   0.22519   0.23313   0.00000
   7        3PX         0.00000   0.00000   0.00000   0.00000   0.00000
   8        3PY         0.00000   0.00000   0.00000   0.00000   0.11382
   9        3PZ        -0.00056   0.00237  -0.00888   0.05830   0.00000
  10        4XX        -0.00697  -0.00678  -0.01670  -0.01093   0.00000
  11        4YY        -0.00672  -0.00624  -0.00909   0.00466   0.00000
  12        4ZZ        -0.00665  -0.00614   0.00495  -0.01454   0.00000
  13        4XY         0.00000   0.00000   0.00000   0.00000   0.00000
  14        4XZ         0.00000   0.00000   0.00000   0.00000   0.00000
  15        4YZ         0.00000   0.00000   0.00000   0.00000   0.00199
  16 2   C  1S          0.70180  -0.70216  -0.16030   0.12426   0.00000
  17        2S          0.03431  -0.03503   0.31077  -0.25222   0.00000
  18        2PX         0.00000   0.00000   0.00000   0.00000   0.00000
  19        2PY         0.00000   0.00000   0.00000   0.00000   0.32566
  20        2PZ        -0.00031  -0.00022   0.10613   0.16654   0.00000
  21        3S         -0.00589   0.01258   0.22519  -0.23313   0.00000
  22        3PX         0.00000   0.00000   0.00000   0.00000   0.00000
  23        3PY         0.00000   0.00000   0.00000   0.00000   0.11382
  24        3PZ         0.00056   0.00237   0.00888   0.05830   0.00000
  25        4XX        -0.00697   0.00678  -0.01670   0.01093   0.00000
  26        4YY        -0.00672   0.00624  -0.00909  -0.00466   0.00000
  27        4ZZ        -0.00665   0.00614   0.00495   0.01454   0.00000
  28        4XY         0.00000   0.00000   0.00000   0.00000   0.00000
  29        4XZ         0.00000   0.00000   0.00000   0.00000   0.00000
  30        4YZ         0.00000   0.00000   0.00000   0.00000  -0.00199
  31 3   H  1S         -0.00033  -0.00028   0.08700   0.14781   0.15668
  32        2S          0.00148   0.00138   0.02344   0.07583   0.11697
  33        3PX         0.00000   0.00000   0.00000   0.00000   0.00000
  34        3PY         0.00010   0.00024  -0.00769  -0.00992  -0.00346
  35        3PZ        -0.00001   0.00010  -0.00605  -0.00348  -0.00604
  36 4   H  1S         -0.00033   0.00028   0.08700  -0.14781   0.15668
  37        2S          0.00148  -0.00138   0.02344  -0.07583   0.11697
  38        3PX         0.00000   0.00000   0.00000   0.00000   0.00000
  39        3PY         0.00010  -0.00024  -0.00769   0.00992  -0.00346
  40        3PZ         0.00001   0.00010   0.00605  -0.00348   0.00604
  41 5   H  1S         -0.00033   0.00028   0.08700  -0.14781  -0.15668
  42        2S          0.00148  -0.00138   0.02344  -0.07583  -0.11697
  43        3PX         0.00000   0.00000   0.00000   0.00000   0.00000
  44        3PY        -0.00010   0.00024   0.00769  -0.00992  -0.00346
  45        3PZ         0.00001   0.00010   0.00605  -0.00348  -0.00604
  46 6   H  1S         -0.00033  -0.00028   0.08700   0.14781  -0.15668
  47        2S          0.00148   0.00138   0.02344   0.07583  -0.11697
  48        3PX         0.00000   0.00000   0.00000   0.00000   0.00000
  49        3PY        -0.00010  -0.00024   0.00769   0.00992  -0.00346
  50        3PZ        -0.00001   0.00010  -0.00605  -0.00348   0.00604
                           6         7         8         9        10
                        (AG)--O  (B3G)--O  (B3U)--O  (B2G)--V   (AG)--V
     Eigenvalues --    -0.40736  -0.35534  -0.26644   0.01719   0.11665
   1 1   C  1S          0.01350   0.00000   0.00000   0.00000  -0.08268
   2        2S         -0.03040   0.00000   0.00000   0.00000   0.12989
   3        2PX         0.00000   0.00000   0.39983   0.41881   0.00000
   4        2PY         0.00000   0.30775   0.00000   0.00000   0.00000
   5        2PZ         0.41414   0.00000   0.00000   0.00000   0.17613
   6        3S         -0.00711   0.00000   0.00000   0.00000   1.33706
   7        3PX         0.00000   0.00000   0.28281   0.61762   0.00000
   8        3PY         0.00000   0.10299   0.00000   0.00000   0.00000
   9        3PZ         0.14053   0.00000   0.00000   0.00000   0.55421
  10        4XX         0.00060   0.00000   0.00000   0.00000  -0.00307
  11        4YY         0.01894   0.00000   0.00000   0.00000  -0.01746
  12        4ZZ        -0.00808   0.00000   0.00000   0.00000   0.00264
  13        4XY         0.00000   0.00000   0.00000   0.00000   0.00000
  14        4XZ         0.00000   0.00000  -0.01746   0.02245   0.00000
  15        4YZ         0.00000   0.02649   0.00000   0.00000   0.00000
  16 2   C  1S          0.01350   0.00000   0.00000   0.00000  -0.08268
  17        2S         -0.03040   0.00000   0.00000   0.00000   0.12989
  18        2PX         0.00000   0.00000   0.39983  -0.41881   0.00000
  19        2PY         0.00000  -0.30775   0.00000   0.00000   0.00000
  20        2PZ        -0.41414   0.00000   0.00000   0.00000  -0.17613
  21        3S         -0.00711   0.00000   0.00000   0.00000   1.33706
  22        3PX         0.00000   0.00000   0.28281  -0.61762   0.00000
  23        3PY         0.00000  -0.10299   0.00000   0.00000   0.00000
  24        3PZ        -0.14053   0.00000   0.00000   0.00000  -0.55421
  25        4XX         0.00060   0.00000   0.00000   0.00000  -0.00307
  26        4YY         0.01894   0.00000   0.00000   0.00000  -0.01746
  27        4ZZ        -0.00808   0.00000   0.00000   0.00000   0.00264
  28        4XY         0.00000   0.00000   0.00000   0.00000   0.00000
  29        4XZ         0.00000   0.00000   0.01746   0.02245   0.00000
  30        4YZ         0.00000   0.02649   0.00000   0.00000   0.00000
  31 3   H  1S          0.12380   0.19851   0.00000   0.00000  -0.04556
  32        2S          0.11389   0.20357   0.00000   0.00000  -0.94324
  33        3PX         0.00000   0.00000   0.00980   0.01576   0.00000
  34        3PY        -0.00505  -0.00339   0.00000   0.00000  -0.00755
  35        3PZ         0.00475  -0.00411   0.00000   0.00000   0.00569
  36 4   H  1S          0.12380  -0.19851   0.00000   0.00000  -0.04556
  37        2S          0.11389  -0.20357   0.00000   0.00000  -0.94324
  38        3PX         0.00000   0.00000   0.00980  -0.01576   0.00000
  39        3PY        -0.00505   0.00339   0.00000   0.00000  -0.00755
  40        3PZ        -0.00475  -0.00411   0.00000   0.00000  -0.00569
  41 5   H  1S          0.12380   0.19851   0.00000   0.00000  -0.04556
  42        2S          0.11389   0.20357   0.00000   0.00000  -0.94324
  43        3PX         0.00000   0.00000   0.00980  -0.01576   0.00000
  44        3PY         0.00505   0.00339   0.00000   0.00000   0.00755
  45        3PZ        -0.00475   0.00411   0.00000   0.00000  -0.00569
  46 6   H  1S          0.12380  -0.19851   0.00000   0.00000  -0.04556
  47        2S          0.11389  -0.20357   0.00000   0.00000  -0.94324
  48        3PX         0.00000   0.00000   0.00980   0.01576   0.00000
  49        3PY         0.00505  -0.00339   0.00000   0.00000   0.00755
  50        3PZ         0.00475   0.00411   0.00000   0.00000   0.00569
                          11        12        13        14        15
                       (B2U)--V  (B1U)--V  (B3G)--V  (B1U)--V   (AG)--V
     Eigenvalues --     0.14196   0.15948   0.24349   0.32412   0.47261
   1 1   C  1S          0.00000  -0.11353   0.00000  -0.07047   0.02154
   2        2S          0.00000   0.16145   0.00000   0.03685   0.14900
   3        2PX         0.00000   0.00000   0.00000   0.00000   0.00000
   4        2PY        -0.30190   0.00000   0.32404   0.00000   0.00000
   5        2PZ         0.00000   0.11839   0.00000  -0.19758  -0.54863
   6        3S          0.00000   1.81731   0.00000   2.85393   0.27691
   7        3PX         0.00000   0.00000   0.00000   0.00000   0.00000
   8        3PY        -0.72700   0.00000   1.69186   0.00000   0.00000
   9        3PZ         0.00000   0.08814   0.00000  -2.67090   1.01812
  10        4XX         0.00000  -0.00887   0.00000  -0.01072  -0.00268
  11        4YY         0.00000  -0.00862   0.00000   0.02882  -0.01931
  12        4ZZ         0.00000  -0.01100   0.00000  -0.01498   0.07598
  13        4XY         0.00000   0.00000   0.00000   0.00000   0.00000
  14        4XZ         0.00000   0.00000   0.00000   0.00000   0.00000
  15        4YZ         0.02749   0.00000   0.01789   0.00000   0.00000
  16 2   C  1S          0.00000   0.11353   0.00000   0.07047   0.02154
  17        2S          0.00000  -0.16145   0.00000  -0.03685   0.14900
  18        2PX         0.00000   0.00000   0.00000   0.00000   0.00000
  19        2PY        -0.30190   0.00000  -0.32404   0.00000   0.00000
  20        2PZ         0.00000   0.11839   0.00000  -0.19758   0.54863
  21        3S          0.00000  -1.81731   0.00000  -2.85393   0.27691
  22        3PX         0.00000   0.00000   0.00000   0.00000   0.00000
  23        3PY        -0.72700   0.00000  -1.69186   0.00000   0.00000
  24        3PZ         0.00000   0.08814   0.00000  -2.67090  -1.01812
  25        4XX         0.00000   0.00887   0.00000   0.01072  -0.00268
  26        4YY         0.00000   0.00862   0.00000  -0.02882  -0.01931
  27        4ZZ         0.00000   0.01100   0.00000   0.01498   0.07598
  28        4XY         0.00000   0.00000   0.00000   0.00000   0.00000
  29        4XZ         0.00000   0.00000   0.00000   0.00000   0.00000
  30        4YZ        -0.02749   0.00000   0.01789   0.00000   0.00000
  31 3   H  1S          0.06857  -0.05552   0.01863   0.09453  -0.09113
  32        2S          1.00957  -0.99357  -1.50287   0.46490  -0.08522
  33        3PX         0.00000   0.00000   0.00000   0.00000   0.00000
  34        3PY         0.00152  -0.00594   0.00048   0.01045   0.00635
  35        3PZ         0.00763  -0.00287  -0.00011  -0.01174   0.03357
  36 4   H  1S          0.06857   0.05552  -0.01863  -0.09453  -0.09113
  37        2S          1.00957   0.99357   1.50287  -0.46490  -0.08522
  38        3PX         0.00000   0.00000   0.00000   0.00000   0.00000
  39        3PY         0.00152   0.00594  -0.00048  -0.01045   0.00635
  40        3PZ        -0.00763  -0.00287  -0.00011  -0.01174  -0.03357
  41 5   H  1S         -0.06857   0.05552   0.01863  -0.09453  -0.09113
  42        2S         -1.00957   0.99357  -1.50287  -0.46490  -0.08522
  43        3PX         0.00000   0.00000   0.00000   0.00000   0.00000
  44        3PY         0.00152  -0.00594  -0.00048   0.01045  -0.00635
  45        3PZ         0.00763  -0.00287   0.00011  -0.01174  -0.03357
  46 6   H  1S         -0.06857  -0.05552  -0.01863   0.09453  -0.09113
  47        2S         -1.00957  -0.99357   1.50287   0.46490  -0.08522
  48        3PX         0.00000   0.00000   0.00000   0.00000   0.00000
  49        3PY         0.00152   0.00594   0.00048  -0.01045  -0.00635
  50        3PZ        -0.00763  -0.00287   0.00011  -0.01174   0.03357
                          16        17        18        19        20
                       (B3U)--V  (B2U)--V  (B2G)--V   (AG)--V  (B1U)--V
     Eigenvalues --     0.54898   0.57628   0.63752   0.64776   0.70030
   1 1   C  1S          0.00000   0.00000   0.00000  -0.03893  -0.08729
   2        2S          0.00000   0.00000   0.00000  -0.68025   0.04265
   3        2PX         0.73078   0.00000  -0.78299   0.00000   0.00000
   4        2PY         0.00000  -0.40155   0.00000   0.00000   0.00000
   5        2PZ         0.00000   0.00000   0.00000   0.06518  -0.65636
   6        3S          0.00000   0.00000   0.00000   1.18782   0.42869
   7        3PX        -0.65048   0.00000   1.14129   0.00000   0.00000
   8        3PY         0.00000   0.80853   0.00000   0.00000   0.00000
   9        3PZ         0.00000   0.00000   0.00000   0.20305   0.67862
  10        4XX         0.00000   0.00000   0.00000   0.05916   0.08860
  11        4YY         0.00000   0.00000   0.00000  -0.16688  -0.05036
  12        4ZZ         0.00000   0.00000   0.00000  -0.08328  -0.16186
  13        4XY         0.00000   0.00000   0.00000   0.00000   0.00000
  14        4XZ        -0.05542   0.00000  -0.01896   0.00000   0.00000
  15        4YZ         0.00000  -0.08985   0.00000   0.00000   0.00000
  16 2   C  1S          0.00000   0.00000   0.00000  -0.03893   0.08729
  17        2S          0.00000   0.00000   0.00000  -0.68025  -0.04265
  18        2PX         0.73078   0.00000   0.78299   0.00000   0.00000
  19        2PY         0.00000  -0.40155   0.00000   0.00000   0.00000
  20        2PZ         0.00000   0.00000   0.00000  -0.06518  -0.65636
  21        3S          0.00000   0.00000   0.00000   1.18782  -0.42869
  22        3PX        -0.65048   0.00000  -1.14129   0.00000   0.00000
  23        3PY         0.00000   0.80853   0.00000   0.00000   0.00000
  24        3PZ         0.00000   0.00000   0.00000  -0.20305   0.67862
  25        4XX         0.00000   0.00000   0.00000   0.05916  -0.08860
  26        4YY         0.00000   0.00000   0.00000  -0.16688   0.05036
  27        4ZZ         0.00000   0.00000   0.00000  -0.08328   0.16186
  28        4XY         0.00000   0.00000   0.00000   0.00000   0.00000
  29        4XZ         0.05542   0.00000  -0.01896   0.00000   0.00000
  30        4YZ         0.00000   0.08985   0.00000   0.00000   0.00000
  31 3   H  1S          0.00000  -0.38222   0.00000  -0.42752  -0.35042
  32        2S          0.00000  -0.11465   0.00000  -0.07386  -0.07687
  33        3PX         0.00170   0.00000  -0.00430   0.00000   0.00000
  34        3PY         0.00000   0.02782   0.00000  -0.02267   0.00069
  35        3PZ         0.00000  -0.02469   0.00000  -0.00559  -0.01842
  36 4   H  1S          0.00000  -0.38222   0.00000  -0.42752   0.35042
  37        2S          0.00000  -0.11465   0.00000  -0.07386   0.07687
  38        3PX         0.00170   0.00000   0.00430   0.00000   0.00000
  39        3PY         0.00000   0.02782   0.00000  -0.02267  -0.00069
  40        3PZ         0.00000   0.02469   0.00000   0.00559  -0.01842
  41 5   H  1S          0.00000   0.38222   0.00000  -0.42752   0.35042
  42        2S          0.00000   0.11465   0.00000  -0.07386   0.07687
  43        3PX         0.00170   0.00000   0.00430   0.00000   0.00000
  44        3PY         0.00000   0.02782   0.00000   0.02267   0.00069
  45        3PZ         0.00000  -0.02469   0.00000   0.00559  -0.01842
  46 6   H  1S          0.00000   0.38222   0.00000  -0.42752  -0.35042
  47        2S          0.00000   0.11465   0.00000  -0.07386  -0.07687
  48        3PX         0.00170   0.00000  -0.00430   0.00000   0.00000
  49        3PY         0.00000   0.02782   0.00000   0.02267  -0.00069
  50        3PZ         0.00000   0.02469   0.00000  -0.00559  -0.01842
                          21        22        23        24        25
                       (B2U)--V  (B3G)--V  (B1U)--V   (AG)--V  (B1U)--V
     Eigenvalues --     0.83063   0.84339   0.90621   0.91478   1.10195
   1 1   C  1S          0.00000   0.00000   0.02811   0.01426  -0.03541
   2        2S          0.00000   0.00000  -0.38862  -1.03244  -1.52991
   3        2PX         0.00000   0.00000   0.00000   0.00000   0.00000
   4        2PY        -0.61520  -0.81335   0.00000   0.00000   0.00000
   5        2PZ         0.00000   0.00000  -0.55461  -0.29071   0.22784
   6        3S          0.00000   0.00000   0.14579   1.98093   5.73904
   7        3PX         0.00000   0.00000   0.00000   0.00000   0.00000
   8        3PY         1.17673   2.75865   0.00000   0.00000   0.00000
   9        3PZ         0.00000   0.00000   1.51093   0.52776  -1.97168
  10        4XX         0.00000   0.00000  -0.08097  -0.07265  -0.02686
  11        4YY         0.00000   0.00000   0.15956   0.08882  -0.15987
  12        4ZZ         0.00000   0.00000  -0.08033  -0.09339   0.03036
  13        4XY         0.00000   0.00000   0.00000   0.00000   0.00000
  14        4XZ         0.00000   0.00000   0.00000   0.00000   0.00000
  15        4YZ         0.19453   0.06265   0.00000   0.00000   0.00000
  16 2   C  1S          0.00000   0.00000  -0.02811   0.01426   0.03541
  17        2S          0.00000   0.00000   0.38862  -1.03244   1.52991
  18        2PX         0.00000   0.00000   0.00000   0.00000   0.00000
  19        2PY        -0.61520   0.81335   0.00000   0.00000   0.00000
  20        2PZ         0.00000   0.00000  -0.55461   0.29071   0.22784
  21        3S          0.00000   0.00000  -0.14579   1.98093  -5.73904
  22        3PX         0.00000   0.00000   0.00000   0.00000   0.00000
  23        3PY         1.17673  -2.75865   0.00000   0.00000   0.00000
  24        3PZ         0.00000   0.00000   1.51093  -0.52776  -1.97168
  25        4XX         0.00000   0.00000   0.08097  -0.07265   0.02686
  26        4YY         0.00000   0.00000  -0.15956   0.08882   0.15987
  27        4ZZ         0.00000   0.00000   0.08033  -0.09339  -0.03036
  28        4XY         0.00000   0.00000   0.00000   0.00000   0.00000
  29        4XZ         0.00000   0.00000   0.00000   0.00000   0.00000
  30        4YZ        -0.19453   0.06265   0.00000   0.00000   0.00000
  31 3   H  1S          0.38466   0.22808   0.47056   0.37930  -0.12394
  32        2S         -1.16848  -1.57317  -1.08498  -0.96031  -0.40470
  33        3PX         0.00000   0.00000   0.00000   0.00000   0.00000
  34        3PY         0.05779   0.06006   0.06513   0.06596   0.02508
  35        3PZ         0.03039   0.05867   0.00958   0.00910   0.02417
  36 4   H  1S          0.38466  -0.22808  -0.47056   0.37930   0.12394
  37        2S         -1.16848   1.57317   1.08498  -0.96031   0.40470
  38        3PX         0.00000   0.00000   0.00000   0.00000   0.00000
  39        3PY         0.05779  -0.06006  -0.06513   0.06596  -0.02508
  40        3PZ        -0.03039   0.05867   0.00958  -0.00910   0.02417
  41 5   H  1S         -0.38466   0.22808  -0.47056   0.37930   0.12394
  42        2S          1.16848  -1.57317   1.08498  -0.96031   0.40470
  43        3PX         0.00000   0.00000   0.00000   0.00000   0.00000
  44        3PY         0.05779  -0.06006   0.06513  -0.06596   0.02508
  45        3PZ         0.03039  -0.05867   0.00958  -0.00910   0.02417
  46 6   H  1S         -0.38466  -0.22808   0.47056   0.37930  -0.12394
  47        2S          1.16848   1.57317  -1.08498  -0.96031  -0.40470
  48        3PX         0.00000   0.00000   0.00000   0.00000   0.00000
  49        3PY         0.05779   0.06006  -0.06513  -0.06596  -0.02508
  50        3PZ        -0.03039  -0.05867   0.00958   0.00910   0.02417
                          26        27        28        29        30
                       (B3G)--V  (B1G)--V  (B3U)--V   (AU)--V   (AG)--V
     Eigenvalues --     1.23037   1.38064   1.39720   1.52330   1.84170
   1 1   C  1S          0.00000   0.00000   0.00000   0.00000   0.02409
   2        2S          0.00000   0.00000   0.00000   0.00000   0.06429
   3        2PX         0.00000   0.00000   0.14182   0.00000   0.00000
   4        2PY        -0.19710   0.00000   0.00000   0.00000   0.00000
   5        2PZ         0.00000   0.00000   0.00000   0.00000   0.07383
   6        3S          0.00000   0.00000   0.00000   0.00000  -0.53617
   7        3PX         0.00000   0.00000  -0.07277   0.00000   0.00000
   8        3PY         2.86089   0.00000   0.00000   0.00000   0.00000
   9        3PZ         0.00000   0.00000   0.00000   0.00000  -0.40528
  10        4XX         0.00000   0.00000   0.00000   0.00000   0.54105
  11        4YY         0.00000   0.00000   0.00000   0.00000  -0.50611
  12        4ZZ         0.00000   0.00000   0.00000   0.00000   0.08261
  13        4XY         0.00000   0.52886   0.00000   0.48214   0.00000
  14        4XZ         0.00000   0.00000   0.56014   0.00000   0.00000
  15        4YZ        -0.17483   0.00000   0.00000   0.00000   0.00000
  16 2   C  1S          0.00000   0.00000   0.00000   0.00000   0.02409
  17        2S          0.00000   0.00000   0.00000   0.00000   0.06429
  18        2PX         0.00000   0.00000   0.14182   0.00000   0.00000
  19        2PY         0.19710   0.00000   0.00000   0.00000   0.00000
  20        2PZ         0.00000   0.00000   0.00000   0.00000  -0.07383
  21        3S          0.00000   0.00000   0.00000   0.00000  -0.53617
  22        3PX         0.00000   0.00000  -0.07277   0.00000   0.00000
  23        3PY        -2.86089   0.00000   0.00000   0.00000   0.00000
  24        3PZ         0.00000   0.00000   0.00000   0.00000   0.40528
  25        4XX         0.00000   0.00000   0.00000   0.00000   0.54105
  26        4YY         0.00000   0.00000   0.00000   0.00000  -0.50611
  27        4ZZ         0.00000   0.00000   0.00000   0.00000   0.08261
  28        4XY         0.00000   0.52886   0.00000  -0.48214   0.00000
  29        4XZ         0.00000   0.00000  -0.56014   0.00000   0.00000
  30        4YZ        -0.17483   0.00000   0.00000   0.00000   0.00000
  31 3   H  1S         -0.63369   0.00000   0.00000   0.00000   0.32660
  32        2S         -0.83816   0.00000   0.00000   0.00000   0.09111
  33        3PX         0.00000   0.20853   0.14199   0.27619   0.00000
  34        3PY         0.03348   0.00000   0.00000   0.00000   0.02648
  35        3PZ        -0.08333   0.00000   0.00000   0.00000   0.17462
  36 4   H  1S          0.63369   0.00000   0.00000   0.00000   0.32660
  37        2S          0.83816   0.00000   0.00000   0.00000   0.09111
  38        3PX         0.00000   0.20853   0.14199  -0.27619   0.00000
  39        3PY        -0.03348   0.00000   0.00000   0.00000   0.02648
  40        3PZ        -0.08333   0.00000   0.00000   0.00000  -0.17462
  41 5   H  1S         -0.63369   0.00000   0.00000   0.00000   0.32660
  42        2S         -0.83816   0.00000   0.00000   0.00000   0.09111
  43        3PX         0.00000  -0.20853   0.14199   0.27619   0.00000
  44        3PY        -0.03348   0.00000   0.00000   0.00000  -0.02648
  45        3PZ         0.08333   0.00000   0.00000   0.00000  -0.17462
  46 6   H  1S          0.63369   0.00000   0.00000   0.00000   0.32660
  47        2S          0.83816   0.00000   0.00000   0.00000   0.09111
  48        3PX         0.00000  -0.20853   0.14199  -0.27619   0.00000
  49        3PY         0.03348   0.00000   0.00000   0.00000  -0.02648
  50        3PZ         0.08333   0.00000   0.00000   0.00000   0.17462
                          31        32        33        34        35
                       (B2U)--V   (AG)--V  (B3G)--V  (B1U)--V  (B2G)--V
     Eigenvalues --     1.86733   1.97174   1.98541   2.04286   2.14118
   1 1   C  1S          0.00000  -0.02892   0.00000  -0.00250   0.00000
   2        2S          0.00000  -0.43755   0.00000  -0.26940   0.00000
   3        2PX         0.00000   0.00000   0.00000   0.00000  -0.10955
   4        2PY         0.02088   0.00000  -0.15081   0.00000   0.00000
   5        2PZ         0.00000   0.26792   0.00000   0.17534   0.00000
   6        3S          0.00000   0.32113   0.00000  -0.12119   0.00000
   7        3PX         0.00000   0.00000   0.00000   0.00000  -0.46285
   8        3PY         0.32078   0.00000   1.41594   0.00000   0.00000
   9        3PZ         0.00000  -0.46565   0.00000   0.56463   0.00000
  10        4XX         0.00000  -0.51121   0.00000  -0.39450   0.00000
  11        4YY         0.00000  -0.19168   0.00000   0.42843   0.00000
  12        4ZZ         0.00000   0.51622   0.00000  -0.18582   0.00000
  13        4XY         0.00000   0.00000   0.00000   0.00000   0.00000
  14        4XZ         0.00000   0.00000   0.00000   0.00000   0.50147
  15        4YZ         0.51090   0.00000   0.28857   0.00000   0.00000
  16 2   C  1S          0.00000  -0.02892   0.00000   0.00250   0.00000
  17        2S          0.00000  -0.43755   0.00000   0.26940   0.00000
  18        2PX         0.00000   0.00000   0.00000   0.00000   0.10955
  19        2PY         0.02088   0.00000   0.15081   0.00000   0.00000
  20        2PZ         0.00000  -0.26792   0.00000   0.17534   0.00000
  21        3S          0.00000   0.32113   0.00000   0.12119   0.00000
  22        3PX         0.00000   0.00000   0.00000   0.00000   0.46285
  23        3PY         0.32078   0.00000  -1.41594   0.00000   0.00000
  24        3PZ         0.00000   0.46565   0.00000   0.56463   0.00000
  25        4XX         0.00000  -0.51121   0.00000   0.39450   0.00000
  26        4YY         0.00000  -0.19168   0.00000  -0.42843   0.00000
  27        4ZZ         0.00000   0.51622   0.00000   0.18582   0.00000
  28        4XY         0.00000   0.00000   0.00000   0.00000   0.00000
  29        4XZ         0.00000   0.00000   0.00000   0.00000   0.50147
  30        4YZ        -0.51090   0.00000   0.28857   0.00000   0.00000
  31 3   H  1S         -0.38966   0.02742  -0.36473  -0.26263   0.00000
  32        2S          0.02637  -0.04345  -0.43367  -0.03935   0.00000
  33        3PX         0.00000   0.00000   0.00000   0.00000   0.40264
  34        3PY        -0.21368  -0.10295  -0.29003  -0.00321   0.00000
  35        3PZ         0.03857   0.17137   0.29653  -0.31784   0.00000
  36 4   H  1S         -0.38966   0.02742   0.36473   0.26263   0.00000
  37        2S          0.02637  -0.04345   0.43367   0.03935   0.00000
  38        3PX         0.00000   0.00000   0.00000   0.00000  -0.40264
  39        3PY        -0.21368  -0.10295   0.29003   0.00321   0.00000
  40        3PZ        -0.03857  -0.17137   0.29653  -0.31784   0.00000
  41 5   H  1S          0.38966   0.02742  -0.36473   0.26263   0.00000
  42        2S         -0.02637  -0.04345  -0.43367   0.03935   0.00000
  43        3PX         0.00000   0.00000   0.00000   0.00000  -0.40264
  44        3PY        -0.21368   0.10295   0.29003  -0.00321   0.00000
  45        3PZ         0.03857  -0.17137  -0.29653  -0.31784   0.00000
  46 6   H  1S          0.38966   0.02742   0.36473  -0.26263   0.00000
  47        2S         -0.02637  -0.04345   0.43367  -0.03935   0.00000
  48        3PX         0.00000   0.00000   0.00000   0.00000   0.40264
  49        3PY        -0.21368   0.10295  -0.29003   0.00321   0.00000
  50        3PZ        -0.03857   0.17137  -0.29653  -0.31784   0.00000
                          36        37        38        39        40
                       (B2U)--V  (B3U)--V  (B1G)--V  (B1U)--V  (B2G)--V
     Eigenvalues --     2.23617   2.34740   2.46170   2.50996   2.58697
   1 1   C  1S          0.00000   0.00000   0.00000  -0.06992   0.00000
   2        2S          0.00000   0.00000   0.00000  -0.11549   0.00000
   3        2PX         0.00000  -0.11870   0.00000   0.00000  -0.06165
   4        2PY        -0.09785   0.00000   0.00000   0.00000   0.00000
   5        2PZ         0.00000   0.00000   0.00000  -0.61669   0.00000
   6        3S          0.00000   0.00000   0.00000   3.06213   0.00000
   7        3PX         0.00000  -0.13180   0.00000   0.00000   0.04568
   8        3PY         0.36675   0.00000   0.00000   0.00000   0.00000
   9        3PZ         0.00000   0.00000   0.00000  -1.82051   0.00000
  10        4XX         0.00000   0.00000   0.00000  -0.66458   0.00000
  11        4YY         0.00000   0.00000   0.00000  -0.08987   0.00000
  12        4ZZ         0.00000   0.00000   0.00000   0.67928   0.00000
  13        4XY         0.00000   0.00000   0.49631   0.00000   0.00000
  14        4XZ         0.00000  -0.30209   0.00000   0.00000   0.76706
  15        4YZ        -0.22469   0.00000   0.00000   0.00000   0.00000
  16 2   C  1S          0.00000   0.00000   0.00000   0.06992   0.00000
  17        2S          0.00000   0.00000   0.00000   0.11549   0.00000
  18        2PX         0.00000  -0.11870   0.00000   0.00000   0.06165
  19        2PY        -0.09785   0.00000   0.00000   0.00000   0.00000
  20        2PZ         0.00000   0.00000   0.00000  -0.61669   0.00000
  21        3S          0.00000   0.00000   0.00000  -3.06213   0.00000
  22        3PX         0.00000  -0.13180   0.00000   0.00000  -0.04568
  23        3PY         0.36675   0.00000   0.00000   0.00000   0.00000
  24        3PZ         0.00000   0.00000   0.00000  -1.82051   0.00000
  25        4XX         0.00000   0.00000   0.00000   0.66458   0.00000
  26        4YY         0.00000   0.00000   0.00000   0.08987   0.00000
  27        4ZZ         0.00000   0.00000   0.00000  -0.67928   0.00000
  28        4XY         0.00000   0.00000   0.49631   0.00000   0.00000
  29        4XZ         0.00000   0.30209   0.00000   0.00000   0.76706
  30        4YZ         0.22469   0.00000   0.00000   0.00000   0.00000
  31 3   H  1S          0.07358   0.00000   0.00000  -0.13893   0.00000
  32        2S         -0.30088   0.00000   0.00000   0.20964   0.00000
  33        3PX         0.00000   0.51418  -0.49031   0.00000  -0.36563
  34        3PY        -0.20730   0.00000   0.00000  -0.27290   0.00000
  35        3PZ         0.46384   0.00000   0.00000   0.18734   0.00000
  36 4   H  1S          0.07358   0.00000   0.00000   0.13893   0.00000
  37        2S         -0.30088   0.00000   0.00000  -0.20964   0.00000
  38        3PX         0.00000   0.51418  -0.49031   0.00000   0.36563
  39        3PY        -0.20730   0.00000   0.00000   0.27290   0.00000
  40        3PZ        -0.46384   0.00000   0.00000   0.18734   0.00000
  41 5   H  1S         -0.07358   0.00000   0.00000   0.13893   0.00000
  42        2S          0.30088   0.00000   0.00000  -0.20964   0.00000
  43        3PX         0.00000   0.51418   0.49031   0.00000   0.36563
  44        3PY        -0.20730   0.00000   0.00000  -0.27290   0.00000
  45        3PZ         0.46384   0.00000   0.00000   0.18734   0.00000
  46 6   H  1S         -0.07358   0.00000   0.00000  -0.13893   0.00000
  47        2S          0.30088   0.00000   0.00000   0.20964   0.00000
  48        3PX         0.00000   0.51418   0.49031   0.00000  -0.36563
  49        3PY        -0.20730   0.00000   0.00000   0.27290   0.00000
  50        3PZ        -0.46384   0.00000   0.00000   0.18734   0.00000
                          41        42        43        44        45
                        (AU)--V  (B3G)--V   (AG)--V  (B1U)--V   (AG)--V
     Eigenvalues --     2.69216   2.69784   2.72645   2.95690   3.18710
   1 1   C  1S          0.00000   0.00000  -0.03208  -0.05862  -0.05162
   2        2S          0.00000   0.00000   0.03453   0.59395   0.46427
   3        2PX         0.00000   0.00000   0.00000   0.00000   0.00000
   4        2PY         0.00000   0.42123   0.00000   0.00000   0.00000
   5        2PZ         0.00000   0.00000   0.17324  -0.30812   0.34016
   6        3S          0.00000   0.00000   0.49234   0.32062   0.47568
   7        3PX         0.00000   0.00000   0.00000   0.00000   0.00000
   8        3PY         0.00000   0.73975   0.00000   0.00000   0.00000
   9        3PZ         0.00000   0.00000   0.25056   0.26592   0.15406
  10        4XX         0.00000   0.00000  -0.15804  -0.45401  -0.36109
  11        4YY         0.00000   0.00000  -0.38616  -0.38303   0.60395
  12        4ZZ         0.00000   0.00000   0.34918   0.75958  -0.16165
  13        4XY         0.62896   0.00000   0.00000   0.00000   0.00000
  14        4XZ         0.00000   0.00000   0.00000   0.00000   0.00000
  15        4YZ         0.00000  -0.36258   0.00000   0.00000   0.00000
  16 2   C  1S          0.00000   0.00000  -0.03208   0.05862  -0.05162
  17        2S          0.00000   0.00000   0.03453  -0.59395   0.46427
  18        2PX         0.00000   0.00000   0.00000   0.00000   0.00000
  19        2PY         0.00000  -0.42123   0.00000   0.00000   0.00000
  20        2PZ         0.00000   0.00000  -0.17324  -0.30812  -0.34016
  21        3S          0.00000   0.00000   0.49234  -0.32062   0.47568
  22        3PX         0.00000   0.00000   0.00000   0.00000   0.00000
  23        3PY         0.00000  -0.73975   0.00000   0.00000   0.00000
  24        3PZ         0.00000   0.00000  -0.25056   0.26592  -0.15406
  25        4XX         0.00000   0.00000  -0.15804   0.45401  -0.36109
  26        4YY         0.00000   0.00000  -0.38616   0.38303   0.60395
  27        4ZZ         0.00000   0.00000   0.34918  -0.75958  -0.16165
  28        4XY        -0.62896   0.00000   0.00000   0.00000   0.00000
  29        4XZ         0.00000   0.00000   0.00000   0.00000   0.00000
  30        4YZ         0.00000  -0.36258   0.00000   0.00000   0.00000
  31 3   H  1S          0.00000  -0.03990   0.00882  -0.05472  -0.36453
  32        2S          0.00000  -0.52453  -0.23540  -0.27290  -0.25823
  33        3PX        -0.46194   0.00000   0.00000   0.00000   0.00000
  34        3PY         0.00000   0.20559   0.36776   0.44465   0.54136
  35        3PZ         0.00000   0.46198  -0.37027  -0.16774   0.42651
  36 4   H  1S          0.00000   0.03990   0.00882   0.05472  -0.36453
  37        2S          0.00000   0.52453  -0.23540   0.27290  -0.25823
  38        3PX         0.46194   0.00000   0.00000   0.00000   0.00000
  39        3PY         0.00000  -0.20559   0.36776  -0.44465   0.54136
  40        3PZ         0.00000   0.46198   0.37027  -0.16774  -0.42651
  41 5   H  1S          0.00000  -0.03990   0.00882   0.05472  -0.36453
  42        2S          0.00000  -0.52453  -0.23540   0.27290  -0.25823
  43        3PX        -0.46194   0.00000   0.00000   0.00000   0.00000
  44        3PY         0.00000  -0.20559  -0.36776   0.44465  -0.54136
  45        3PZ         0.00000  -0.46198   0.37027  -0.16774  -0.42651
  46 6   H  1S          0.00000   0.03990   0.00882  -0.05472  -0.36453
  47        2S          0.00000   0.52453  -0.23540  -0.27290  -0.25823
  48        3PX         0.46194   0.00000   0.00000   0.00000   0.00000
  49        3PY         0.00000   0.20559  -0.36776  -0.44465  -0.54136
  50        3PZ         0.00000  -0.46198  -0.37027  -0.16774   0.42651
                          46        47        48        49        50
                       (B2U)--V  (B1U)--V  (B3G)--V   (AG)--V  (B1U)--V
     Eigenvalues --     3.32457   3.50428   3.71825   4.17452   4.50177
   1 1   C  1S          0.00000  -0.13418   0.00000  -0.32764  -0.31479
   2        2S          0.00000   0.45090   0.00000   2.18392   1.95182
   3        2PX         0.00000   0.00000   0.00000   0.00000   0.00000
   4        2PY         0.71050   0.00000   0.48568   0.00000   0.00000
   5        2PZ         0.00000   0.58231   0.00000  -0.20802   0.13684
   6        3S          0.00000   1.77207   0.00000   0.79813   1.48508
   7        3PX         0.00000   0.00000   0.00000   0.00000   0.00000
   8        3PY         0.37181   0.00000   0.50449   0.00000   0.00000
   9        3PZ         0.00000  -0.31109   0.00000   0.04239  -0.28283
  10        4XX         0.00000  -0.67601   0.00000  -1.23319  -1.06798
  11        4YY         0.00000   0.56738   0.00000  -1.48406  -1.65712
  12        4ZZ         0.00000  -0.75656   0.00000  -1.27007  -1.66782
  13        4XY         0.00000   0.00000   0.00000   0.00000   0.00000
  14        4XZ         0.00000   0.00000   0.00000   0.00000   0.00000
  15        4YZ         0.65338   0.00000   1.11850   0.00000   0.00000
  16 2   C  1S          0.00000   0.13418   0.00000  -0.32764   0.31479
  17        2S          0.00000  -0.45090   0.00000   2.18392  -1.95182
  18        2PX         0.00000   0.00000   0.00000   0.00000   0.00000
  19        2PY         0.71050   0.00000  -0.48568   0.00000   0.00000
  20        2PZ         0.00000   0.58231   0.00000   0.20802   0.13684
  21        3S          0.00000  -1.77207   0.00000   0.79813  -1.48508
  22        3PX         0.00000   0.00000   0.00000   0.00000   0.00000
  23        3PY         0.37181   0.00000  -0.50449   0.00000   0.00000
  24        3PZ         0.00000  -0.31109   0.00000  -0.04239  -0.28283
  25        4XX         0.00000   0.67601   0.00000  -1.23319   1.06798
  26        4YY         0.00000  -0.56738   0.00000  -1.48406   1.65712
  27        4ZZ         0.00000   0.75656   0.00000  -1.27007   1.66782
  28        4XY         0.00000   0.00000   0.00000   0.00000   0.00000
  29        4XZ         0.00000   0.00000   0.00000   0.00000   0.00000
  30        4YZ        -0.65338   0.00000   1.11850   0.00000   0.00000
  31 3   H  1S         -0.43477  -0.40184  -0.53220   0.22562   0.30101
  32        2S         -0.35206  -0.31254  -0.27898  -0.21537  -0.14831
  33        3PX         0.00000   0.00000   0.00000   0.00000   0.00000
  34        3PY         0.61186   0.37743   0.62334  -0.18372  -0.30313
  35        3PZ         0.35132   0.47497   0.15421  -0.07912  -0.19759
  36 4   H  1S         -0.43477   0.40184   0.53220   0.22562  -0.30101
  37        2S         -0.35206   0.31254   0.27898  -0.21537   0.14831
  38        3PX         0.00000   0.00000   0.00000   0.00000   0.00000
  39        3PY         0.61186  -0.37743  -0.62334  -0.18372   0.30313
  40        3PZ        -0.35132   0.47497   0.15421   0.07912  -0.19759
  41 5   H  1S          0.43477   0.40184  -0.53220   0.22562  -0.30101
  42        2S          0.35206   0.31254  -0.27898  -0.21537   0.14831
  43        3PX         0.00000   0.00000   0.00000   0.00000   0.00000
  44        3PY         0.61186   0.37743  -0.62334   0.18372  -0.30313
  45        3PZ         0.35132   0.47497  -0.15421   0.07912  -0.19759
  46 6   H  1S          0.43477  -0.40184   0.53220   0.22562   0.30101
  47        2S          0.35206  -0.31254   0.27898  -0.21537  -0.14831
  48        3PX         0.00000   0.00000   0.00000   0.00000   0.00000
  49        3PY         0.61186  -0.37743   0.62334   0.18372   0.30313
  50        3PZ        -0.35132   0.47497  -0.15421  -0.07912  -0.19759
     Density Matrix:
                           1         2         3         4         5
   1 1   C  1S          2.05374
   2        2S         -0.06578   0.32704
   3        2PX         0.00000  -0.00000   0.31973
   4        2PY         0.00000  -0.00000  -0.00000   0.40153
   5        2PZ         0.00396  -0.00713   0.00000   0.00000   0.42101
   6        3S         -0.15626   0.25671   0.00000   0.00000   0.02397
   7        3PX        -0.00000   0.00000   0.22615  -0.00000  -0.00000
   8        3PY        -0.00000   0.00000  -0.00000   0.13753   0.00000
   9        3PZ        -0.00530   0.01547  -0.00000   0.00000   0.13770
  10        4XX        -0.01122  -0.01689  -0.00000   0.00000   0.00040
  11        4YY        -0.01592  -0.00535   0.00000   0.00000   0.01917
  12        4ZZ        -0.01615  -0.00466   0.00000  -0.00000  -0.01259
  13        4XY         0.00000   0.00000  -0.00000   0.00000  -0.00000
  14        4XZ        -0.00000   0.00000  -0.01396  -0.00000  -0.00000
  15        4YZ        -0.00000   0.00000  -0.00000   0.01760  -0.00000
  16 2   C  1S          0.01988  -0.03881   0.00000   0.00000   0.08734
  17        2S         -0.03881   0.06767  -0.00000  -0.00000  -0.17511
  18        2PX        -0.00000   0.00000   0.31973  -0.00000  -0.00000
  19        2PY        -0.00000   0.00000  -0.00000   0.02268  -0.00000
  20        2PZ        -0.08734   0.17511  -0.00000  -0.00000  -0.31007
  21        3S         -0.00505   0.02327  -0.00000  -0.00000  -0.13134
  22        3PX        -0.00000   0.00000   0.22615  -0.00000  -0.00000
  23        3PY        -0.00000   0.00000  -0.00000   0.01074  -0.00000
  24        3PZ        -0.01701   0.04368  -0.00000  -0.00000  -0.09886
  25        4XX         0.00240  -0.00491   0.00000   0.00000   0.00767
  26        4YY         0.00391  -0.00918   0.00000   0.00000   0.01606
  27        4ZZ        -0.00612   0.01088  -0.00000  -0.00000  -0.00291
  28        4XY        -0.00000   0.00000   0.00000   0.00000  -0.00000
  29        4XZ        -0.00000   0.00000   0.01396  -0.00000  -0.00000
  30        4YZ        -0.00000   0.00000  -0.00000   0.01500  -0.00000
  31 3   H  1S         -0.06214   0.12106   0.00000   0.22423   0.13330
  32        2S         -0.01927   0.04609   0.00000   0.20148   0.11461
  33        3PX         0.00000  -0.00000   0.00784  -0.00000  -0.00000
  34        3PY         0.00527  -0.00945  -0.00000  -0.00434  -0.00586
  35        3PZ         0.00306  -0.00580  -0.00000  -0.00646   0.00406
  36 4   H  1S          0.01212  -0.02802   0.00000  -0.02013   0.03484
  37        2S          0.01453  -0.03060   0.00000  -0.04912   0.06410
  38        3PX        -0.00000   0.00000   0.00784   0.00000  -0.00000
  39        3PY        -0.00032   0.00053   0.00000  -0.00016   0.00075
  40        3PZ        -0.00106   0.00230  -0.00000   0.00140  -0.00638
  41 5   H  1S          0.01212  -0.02802   0.00000   0.02013   0.03484
  42        2S          0.01453  -0.03060   0.00000   0.04912   0.06410
  43        3PX        -0.00000   0.00000   0.00784  -0.00000  -0.00000
  44        3PY         0.00032  -0.00053  -0.00000  -0.00016  -0.00075
  45        3PZ        -0.00106   0.00230  -0.00000  -0.00140  -0.00638
  46 6   H  1S         -0.06214   0.12106   0.00000  -0.22423   0.13330
  47        2S         -0.01927   0.04609   0.00000  -0.20148   0.11461
  48        3PX         0.00000  -0.00000   0.00784   0.00000  -0.00000
  49        3PY        -0.00527   0.00945   0.00000  -0.00434   0.00586
  50        3PZ         0.00306  -0.00580  -0.00000   0.00646   0.00406
                           6         7         8         9        10
   6        3S          0.21060
   7        3PX         0.00000   0.15996
   8        3PY         0.00000  -0.00000   0.04713
   9        3PZ         0.02113  -0.00000  -0.00000   0.04646
  10        4XX        -0.01238  -0.00000  -0.00000  -0.00083   0.00099
  11        4YY        -0.00195   0.00000   0.00000   0.00601   0.00040
  12        4ZZ        -0.00420   0.00000  -0.00000  -0.00408   0.00032
  13        4XY         0.00000  -0.00000   0.00000  -0.00000  -0.00000
  14        4XZ         0.00000  -0.00988   0.00000   0.00000   0.00000
  15        4YZ        -0.00000   0.00000   0.00591  -0.00000  -0.00000
  16 2   C  1S         -0.00505   0.00000   0.00000   0.01701   0.00240
  17        2S          0.02327  -0.00000  -0.00000  -0.04368  -0.00491
  18        2PX         0.00000   0.22615  -0.00000  -0.00000  -0.00000
  19        2PY         0.00000  -0.00000   0.01074  -0.00000  -0.00000
  20        2PZ         0.13134  -0.00000  -0.00000  -0.09886  -0.00767
  21        3S         -0.00742  -0.00000  -0.00000  -0.03311  -0.00252
  22        3PX         0.00000   0.15996  -0.00000  -0.00000  -0.00000
  23        3PY         0.00000  -0.00000   0.00469  -0.00000  -0.00000
  24        3PZ         0.03311  -0.00000  -0.00000  -0.03285  -0.00178
  25        4XX        -0.00252   0.00000   0.00000   0.00178   0.00032
  26        4YY        -0.00661   0.00000   0.00000   0.00498   0.00044
  27        4ZZ         0.00905  -0.00000  -0.00000  -0.00063  -0.00048
  28        4XY         0.00000   0.00000   0.00000  -0.00000  -0.00000
  29        4XZ         0.00000   0.00988  -0.00000  -0.00000  -0.00000
  30        4YZ         0.00000  -0.00000   0.00500  -0.00000  -0.00000
  31 3   H  1S          0.10635   0.00000   0.07656   0.05048  -0.00598
  32        2S          0.04424   0.00000   0.06856   0.04044  -0.00234
  33        3PX        -0.00000   0.00554  -0.00000  -0.00000  -0.00000
  34        3PY        -0.00802  -0.00000  -0.00149  -0.00244   0.00046
  35        3PZ        -0.00442  -0.00000  -0.00222   0.00104   0.00028
  36 4   H  1S         -0.03150   0.00000  -0.00522   0.01602   0.00047
  37        2S         -0.02640   0.00000  -0.01531   0.02274   0.00101
  38        3PX         0.00000   0.00554   0.00000  -0.00000  -0.00000
  39        3PY         0.00124  -0.00000  -0.00009  -0.00013   0.00004
  40        3PZ         0.00116  -0.00000   0.00053  -0.00185  -0.00013
  41 5   H  1S         -0.03150   0.00000   0.00522   0.01602   0.00047
  42        2S         -0.02640   0.00000   0.01531   0.02274   0.00101
  43        3PX         0.00000   0.00554  -0.00000  -0.00000  -0.00000
  44        3PY        -0.00124   0.00000  -0.00009   0.00013  -0.00004
  45        3PZ         0.00116  -0.00000  -0.00053  -0.00185  -0.00013
  46 6   H  1S          0.10635   0.00000  -0.07656   0.05048  -0.00598
  47        2S          0.04424   0.00000  -0.06856   0.04044  -0.00234
  48        3PX        -0.00000   0.00554   0.00000  -0.00000  -0.00000
  49        3PY         0.00802   0.00000  -0.00149   0.00244  -0.00046
  50        3PZ        -0.00442  -0.00000   0.00222   0.00104   0.00028
                          11        12        13        14        15
  11        4YY         0.00109
  12        4ZZ        -0.00037   0.00077
  13        4XY        -0.00000   0.00000   0.00000
  14        4XZ        -0.00000  -0.00000   0.00000   0.00061
  15        4YZ         0.00000  -0.00000   0.00000  -0.00000   0.00141
  16 2   C  1S          0.00391  -0.00612  -0.00000  -0.00000  -0.00000
  17        2S         -0.00918   0.01088   0.00000   0.00000   0.00000
  18        2PX        -0.00000   0.00000  -0.00000  -0.01396   0.00000
  19        2PY        -0.00000   0.00000  -0.00000   0.00000  -0.01500
  20        2PZ        -0.01606   0.00291   0.00000   0.00000   0.00000
  21        3S         -0.00661   0.00905   0.00000   0.00000   0.00000
  22        3PX        -0.00000   0.00000  -0.00000  -0.00988   0.00000
  23        3PY        -0.00000   0.00000  -0.00000   0.00000  -0.00500
  24        3PZ        -0.00498   0.00063   0.00000   0.00000   0.00000
  25        4XX         0.00044  -0.00048  -0.00000  -0.00000  -0.00000
  26        4YY         0.00085  -0.00025  -0.00000  -0.00000   0.00000
  27        4ZZ        -0.00025  -0.00023   0.00000   0.00000  -0.00000
  28        4XY        -0.00000   0.00000   0.00000  -0.00000   0.00000
  29        4XZ        -0.00000   0.00000  -0.00000  -0.00061  -0.00000
  30        4YZ         0.00000  -0.00000   0.00000  -0.00000   0.00140
  31 3   H  1S          0.00450  -0.00543   0.00000   0.00000   0.01114
  32        2S          0.00456  -0.00385   0.00000  -0.00000   0.01125
  33        3PX         0.00000   0.00000  -0.00000  -0.00034  -0.00000
  34        3PY        -0.00015   0.00029  -0.00000  -0.00000  -0.00019
  35        3PZ         0.00026  -0.00004  -0.00000  -0.00000  -0.00024
  36 4   H  1S          0.00173   0.00316  -0.00000   0.00000  -0.00989
  37        2S          0.00318   0.00059  -0.00000  -0.00000  -0.01032
  38        3PX        -0.00000   0.00000  -0.00000  -0.00034  -0.00000
  39        3PY         0.00004  -0.00028   0.00000  -0.00000   0.00017
  40        3PZ        -0.00032   0.00024  -0.00000   0.00000  -0.00019
  41 5   H  1S          0.00173   0.00316   0.00000   0.00000   0.00989
  42        2S          0.00318   0.00059   0.00000  -0.00000   0.01032
  43        3PX        -0.00000   0.00000  -0.00000  -0.00034   0.00000
  44        3PY        -0.00004   0.00028   0.00000   0.00000   0.00017
  45        3PZ        -0.00032   0.00024   0.00000   0.00000   0.00019
  46 6   H  1S          0.00450  -0.00543  -0.00000   0.00000  -0.01114
  47        2S          0.00456  -0.00385  -0.00000  -0.00000  -0.01125
  48        3PX         0.00000   0.00000  -0.00000  -0.00034   0.00000
  49        3PY         0.00015  -0.00029  -0.00000   0.00000  -0.00019
  50        3PZ         0.00026  -0.00004   0.00000  -0.00000   0.00024
                          16        17        18        19        20
  16 2   C  1S          2.05374
  17        2S         -0.06578   0.32704
  18        2PX        -0.00000   0.00000   0.31973
  19        2PY        -0.00000   0.00000  -0.00000   0.40153
  20        2PZ        -0.00396   0.00713   0.00000   0.00000   0.42101
  21        3S         -0.15626   0.25671  -0.00000  -0.00000  -0.02397
  22        3PX         0.00000  -0.00000   0.22615  -0.00000  -0.00000
  23        3PY         0.00000  -0.00000  -0.00000   0.13753   0.00000
  24        3PZ         0.00530  -0.01547  -0.00000   0.00000   0.13770
  25        4XX        -0.01122  -0.01689   0.00000  -0.00000  -0.00040
  26        4YY        -0.01592  -0.00535  -0.00000  -0.00000  -0.01917
  27        4ZZ        -0.01615  -0.00466  -0.00000   0.00000   0.01259
  28        4XY         0.00000   0.00000   0.00000  -0.00000   0.00000
  29        4XZ        -0.00000   0.00000   0.01396   0.00000   0.00000
  30        4YZ        -0.00000   0.00000   0.00000  -0.01760   0.00000
  31 3   H  1S          0.01212  -0.02802  -0.00000  -0.02013  -0.03484
  32        2S          0.01453  -0.03060  -0.00000  -0.04912  -0.06410
  33        3PX         0.00000  -0.00000   0.00784  -0.00000  -0.00000
  34        3PY        -0.00032   0.00053  -0.00000  -0.00016  -0.00075
  35        3PZ         0.00106  -0.00230  -0.00000  -0.00140  -0.00638
  36 4   H  1S         -0.06214   0.12106  -0.00000   0.22423  -0.13330
  37        2S         -0.01927   0.04609  -0.00000   0.20148  -0.11461
  38        3PX        -0.00000   0.00000   0.00784   0.00000  -0.00000
  39        3PY         0.00527  -0.00945   0.00000  -0.00434   0.00586
  40        3PZ        -0.00306   0.00580  -0.00000   0.00646   0.00406
  41 5   H  1S         -0.06214   0.12106  -0.00000  -0.22423  -0.13330
  42        2S         -0.01927   0.04609  -0.00000  -0.20148  -0.11461
  43        3PX        -0.00000   0.00000   0.00784  -0.00000  -0.00000
  44        3PY        -0.00527   0.00945  -0.00000  -0.00434  -0.00586
  45        3PZ        -0.00306   0.00580  -0.00000  -0.00646   0.00406
  46 6   H  1S          0.01212  -0.02802  -0.00000   0.02013  -0.03484
  47        2S          0.01453  -0.03060  -0.00000   0.04912  -0.06410
  48        3PX         0.00000  -0.00000   0.00784   0.00000  -0.00000
  49        3PY         0.00032  -0.00053   0.00000  -0.00016   0.00075
  50        3PZ         0.00106  -0.00230  -0.00000   0.00140  -0.00638
                          21        22        23        24        25
  21        3S          0.21060
  22        3PX        -0.00000   0.15996
  23        3PY        -0.00000  -0.00000   0.04713
  24        3PZ        -0.02113  -0.00000  -0.00000   0.04646
  25        4XX        -0.01238   0.00000   0.00000   0.00083   0.00099
  26        4YY        -0.00195  -0.00000  -0.00000  -0.00601   0.00040
  27        4ZZ        -0.00420  -0.00000   0.00000   0.00408   0.00032
  28        4XY         0.00000   0.00000  -0.00000   0.00000  -0.00000
  29        4XZ         0.00000   0.00988  -0.00000  -0.00000   0.00000
  30        4YZ        -0.00000  -0.00000  -0.00591   0.00000  -0.00000
  31 3   H  1S         -0.03150  -0.00000  -0.00522  -0.01602   0.00047
  32        2S         -0.02640  -0.00000  -0.01531  -0.02274   0.00101
  33        3PX        -0.00000   0.00554  -0.00000  -0.00000   0.00000
  34        3PY         0.00124   0.00000  -0.00009   0.00013   0.00004
  35        3PZ        -0.00116  -0.00000  -0.00053  -0.00185   0.00013
  36 4   H  1S          0.10635  -0.00000   0.07656  -0.05048  -0.00598
  37        2S          0.04424  -0.00000   0.06856  -0.04044  -0.00234
  38        3PX         0.00000   0.00554   0.00000  -0.00000   0.00000
  39        3PY        -0.00802   0.00000  -0.00149   0.00244   0.00046
  40        3PZ         0.00442  -0.00000   0.00222   0.00104  -0.00028
  41 5   H  1S          0.10635  -0.00000  -0.07656  -0.05048  -0.00598
  42        2S          0.04424  -0.00000  -0.06856  -0.04044  -0.00234
  43        3PX         0.00000   0.00554  -0.00000  -0.00000   0.00000
  44        3PY         0.00802  -0.00000  -0.00149  -0.00244  -0.00046
  45        3PZ         0.00442  -0.00000  -0.00222   0.00104  -0.00028
  46 6   H  1S         -0.03150  -0.00000   0.00522  -0.01602   0.00047
  47        2S         -0.02640  -0.00000   0.01531  -0.02274   0.00101
  48        3PX        -0.00000   0.00554   0.00000  -0.00000   0.00000
  49        3PY        -0.00124  -0.00000  -0.00009  -0.00013  -0.00004
  50        3PZ        -0.00116  -0.00000   0.00053  -0.00185   0.00013
                          26        27        28        29        30
  26        4YY         0.00109
  27        4ZZ        -0.00037   0.00077
  28        4XY        -0.00000   0.00000   0.00000
  29        4XZ        -0.00000  -0.00000   0.00000   0.00061
  30        4YZ         0.00000  -0.00000   0.00000  -0.00000   0.00141
  31 3   H  1S          0.00173   0.00316   0.00000   0.00000   0.00989
  32        2S          0.00318   0.00059   0.00000  -0.00000   0.01032
  33        3PX         0.00000  -0.00000   0.00000   0.00034  -0.00000
  34        3PY         0.00004  -0.00028  -0.00000  -0.00000  -0.00017
  35        3PZ         0.00032  -0.00024  -0.00000  -0.00000  -0.00019
  36 4   H  1S          0.00450  -0.00543  -0.00000   0.00000  -0.01114
  37        2S          0.00456  -0.00385  -0.00000  -0.00000  -0.01125
  38        3PX        -0.00000  -0.00000   0.00000   0.00034  -0.00000
  39        3PY        -0.00015   0.00029   0.00000  -0.00000   0.00019
  40        3PZ        -0.00026   0.00004  -0.00000   0.00000  -0.00024
  41 5   H  1S          0.00450  -0.00543   0.00000   0.00000   0.01114
  42        2S          0.00456  -0.00385   0.00000  -0.00000   0.01125
  43        3PX        -0.00000  -0.00000   0.00000   0.00034   0.00000
  44        3PY         0.00015  -0.00029   0.00000   0.00000   0.00019
  45        3PZ        -0.00026   0.00004   0.00000   0.00000   0.00024
  46 6   H  1S          0.00173   0.00316  -0.00000   0.00000  -0.00989
  47        2S          0.00318   0.00059  -0.00000  -0.00000  -0.01032
  48        3PX         0.00000  -0.00000   0.00000   0.00034   0.00000
  49        3PY        -0.00004   0.00028  -0.00000   0.00000  -0.00017
  50        3PZ         0.00032  -0.00024   0.00000  -0.00000   0.00019
                          31        32        33        34        35
  31 3   H  1S          0.21740
  32        2S          0.17217   0.14879
  33        3PX        -0.00000  -0.00000   0.00019
  34        3PY        -0.00795  -0.00520   0.00000   0.00041
  35        3PZ        -0.00443  -0.00281   0.00000   0.00018   0.00025
  36 4   H  1S         -0.02762  -0.03431   0.00000   0.00061   0.00089
  37        2S         -0.03431  -0.03998   0.00000   0.00057   0.00159
  38        3PX        -0.00000  -0.00000   0.00019   0.00000  -0.00000
  39        3PY         0.00061   0.00057  -0.00000  -0.00003  -0.00001
[...]
 Sum of electronic and thermal Enthalpies=             -78.538687
 Sum of electronic and thermal Free Energies=          -78.563548
 
                     E (Thermal)             CV                S
                      KCal/Mol        Cal/Mol-Kelvin    Cal/Mol-Kelvin
 Total                   33.996              8.101             52.324
 Electronic               0.000              0.000              0.000
 Translational            0.889              2.981             35.927
 Rotational               0.889              2.981             15.859
 Vibrational             32.219              2.139              0.538
                       Q            Log10(Q)             Ln(Q)
 Total Bot       0.120629D-13        -13.918549        -32.048643
 Total V=0       0.399167D+10          9.601154         22.107475
 Vib (Bot)       0.316943D-23        -23.499019        -54.108490
 Vib (V=0)       0.104878D+01          0.020684          0.047628
 Electronic      0.100000D+01          0.000000          0.000000
 Translational   0.583338D+07          6.765920         15.579107
 Rotational      0.652454D+03          2.814550          6.480741
 
                                                                ethene
                                                             IR Spectrum
 
     3 333                                                       1         1  1     1      1                                         
     2 211                                                       7         4  3     2      0  99    8                                
     4 264                                                       1         8  8     4      6  76    3                                
     8 327                                                       5         3  9     1      9  61    1                                
 
     X   X                                                                 X                  X     X                                
     X   X                                                                                    X                                      
     X   X                                                                                    X                                      
     X   X                                                                                    X                                      
     X                                                                                        X                                      
     X                                                                                        X                                      
     X                                                                                        X                                      
     X                                                                                        X                                      
                                                                                              X                                      
                                                                                              X                                      
                                                                                              X                                      
                                                                                              X                                      
                                                                                              X                                      
                                                                                              X                                      
                                                                                              X                                      
                                                                                              X                                      
                                                                                              X                                      
                                                                                              X                                      
                                                                                              X                                      
                                                                                              X                                      
 
 ***** Axes restored to original set *****
 -------------------------------------------------------------------
 Center     Atomic                   Forces (Hartrees/Bohr)
 Number     Number              X              Y              Z
 -------------------------------------------------------------------
      1        6           0.000000000    0.000000000    0.000020132
      2        6          -0.000000000   -0.000000000   -0.000020132
      3        1           0.000081267   -0.000000000   -0.000068228
      4        1           0.000081267   -0.000000000    0.000068228
      5        1          -0.000081267    0.000000000    0.000068228
      6        1          -0.000081267    0.000000000   -0.000068228
 -------------------------------------------------------------------
 Cartesian Forces:  Max     0.000081267 RMS     0.000050469
 Force constants in Cartesian coordinates: 
                1             2             3             4             5 
      1  0.639167D+00
      2  0.000000D+00  0.108172D+00
      3  0.000000D+00  0.000000D+00  0.878953D+00
      4 -0.113491D+00  0.000000D+00  0.000000D+00  0.639167D+00
      5  0.000000D+00 -0.459810D-01  0.000000D+00  0.000000D+00  0.108172D+00
      6  0.000000D+00  0.000000D+00 -0.590018D+00  0.000000D+00  0.000000D+00
      7 -0.266640D+00  0.000000D+00  0.125268D+00  0.380242D-02  0.000000D+00
      8  0.000000D+00 -0.362690D-01  0.000000D+00  0.000000D+00  0.517339D-02
      9  0.121491D+00  0.000000D+00 -0.131418D+00  0.299745D-01  0.000000D+00
     10  0.380242D-02  0.000000D+00  0.207446D-02 -0.266640D+00  0.000000D+00
     11  0.000000D+00  0.517339D-02  0.000000D+00  0.000000D+00 -0.362690D-01
     12 -0.299745D-01  0.000000D+00 -0.130488D-01 -0.121491D+00  0.000000D+00
     13  0.380242D-02  0.000000D+00 -0.207446D-02 -0.266640D+00  0.000000D+00
     14  0.000000D+00  0.517339D-02  0.000000D+00  0.000000D+00 -0.362690D-01
     15  0.299745D-01  0.000000D+00 -0.130488D-01  0.121491D+00  0.000000D+00
     16 -0.266640D+00  0.000000D+00 -0.125268D+00  0.380242D-02  0.000000D+00
     17  0.000000D+00 -0.362690D-01  0.000000D+00  0.000000D+00  0.517339D-02
     18 -0.121491D+00  0.000000D+00 -0.131418D+00 -0.299745D-01  0.000000D+00
                6             7             8             9            10 
      6  0.878953D+00
      7 -0.207446D-02  0.276194D+00
      8  0.000000D+00  0.000000D+00  0.242011D-01
      9 -0.130488D-01 -0.136565D+00  0.000000D+00  0.138158D+00
     10 -0.125268D+00  0.133650D-02  0.000000D+00 -0.138707D-03  0.276194D+00
     11  0.000000D+00  0.000000D+00 -0.869450D-02  0.000000D+00  0.000000D+00
     12 -0.131418D+00  0.138707D-03  0.000000D+00  0.143672D-02  0.136565D+00
     13  0.125268D+00  0.162319D-02  0.000000D+00 -0.764683D-03 -0.163156D-01
     14  0.000000D+00  0.000000D+00  0.131298D-01  0.000000D+00  0.000000D+00
     15 -0.131418D+00 -0.764683D-03  0.000000D+00 -0.500949D-02 -0.139975D-01
     16  0.207446D-02 -0.163156D-01  0.000000D+00 -0.139975D-01  0.162319D-02
     17  0.000000D+00  0.000000D+00  0.245918D-02  0.000000D+00  0.000000D+00
     18 -0.130488D-01  0.139975D-01  0.000000D+00  0.988222D-02  0.764683D-03
               11            12            13            14            15 
     11  0.242011D-01
     12  0.000000D+00  0.138158D+00
     13  0.000000D+00  0.139975D-01  0.276194D+00
     14  0.245918D-02  0.000000D+00  0.000000D+00  0.242011D-01
     15  0.000000D+00  0.988222D-02 -0.136565D+00  0.000000D+00  0.138158D+00
     16  0.000000D+00  0.764683D-03  0.133650D-02  0.000000D+00 -0.138707D-03
     17  0.131298D-01  0.000000D+00  0.000000D+00 -0.869450D-02  0.000000D+00
     18  0.000000D+00 -0.500949D-02  0.138707D-03  0.000000D+00  0.143672D-02
               16            17            18 
     16  0.276194D+00
     17  0.000000D+00  0.242011D-01
     18  0.136565D+00  0.000000D+00  0.138158D+00
 Force constants in internal coordinates: 
                1             2             3             4             5 
      1  0.649359D+00
      2  0.646786D-02  0.360186D+00
      3  0.646786D-02  0.198610D-02  0.360186D+00
      4  0.646786D-02  0.689561D-03 -0.464478D-03  0.360186D+00
      5  0.646786D-02 -0.464478D-03  0.689561D-03  0.198610D-02  0.360186D+00
      6  0.106409D-01  0.460434D-02 -0.116442D-01 -0.341896D-02  0.441195D-02
      7  0.106409D-01 -0.116442D-01  0.460434D-02  0.441195D-02 -0.341896D-02
      8 -0.212819D-01  0.703986D-02  0.703986D-02 -0.992996D-03 -0.992996D-03
      9  0.106409D-01 -0.341896D-02  0.441195D-02  0.460434D-02 -0.116442D-01
     10  0.106409D-01  0.441195D-02 -0.341896D-02 -0.116442D-01  0.460434D-02
     11 -0.212819D-01 -0.992996D-03 -0.992996D-03  0.703986D-02  0.703986D-02
     12  0.000000D+00  0.000000D+00  0.000000D+00  0.000000D+00  0.000000D+00
     13  0.000000D+00  0.000000D+00  0.000000D+00  0.000000D+00  0.000000D+00
     14  0.000000D+00  0.000000D+00  0.000000D+00  0.000000D+00  0.000000D+00
     15  0.000000D+00  0.000000D+00  0.000000D+00  0.000000D+00  0.000000D+00
                6             7             8             9            10 
      6  0.815831D-01
      7 -0.448472D-01  0.815831D-01
      8 -0.367359D-01 -0.367359D-01  0.734718D-01
      9 -0.903568D-02  0.104695D-01 -0.143377D-02  0.815831D-01
     10  0.104695D-01 -0.903568D-02 -0.143377D-02 -0.448472D-01  0.815831D-01
     11 -0.143377D-02 -0.143377D-02  0.286755D-02 -0.367359D-01 -0.367359D-01
     12  0.000000D+00  0.000000D+00  0.000000D+00  0.000000D+00  0.000000D+00
     13  0.000000D+00  0.000000D+00  0.000000D+00  0.000000D+00  0.000000D+00
     14  0.000000D+00  0.000000D+00  0.000000D+00  0.000000D+00  0.000000D+00
     15  0.000000D+00  0.000000D+00  0.000000D+00  0.000000D+00  0.000000D+00
               11            12            13            14            15 
     11  0.734718D-01
     12  0.000000D+00  0.252518D-01
     13  0.000000D+00  0.829739D-02  0.320051D-01
     14  0.000000D+00  0.829739D-02 -0.154103D-01  0.320051D-01
     15  0.000000D+00 -0.865699D-02  0.829739D-02  0.829739D-02  0.252518D-01
 Leave Link  716 at Tue Aug 20 19:19:18 2024, MaxMem=   33554432 cpu:       0.0
 (Enter /programs/64bit/g09/g09-gfortran/bin/l103.exe)

 GradGradGradGradGradGradGradGradGradGradGradGradGradGradGradGradGradGrad
 Berny optimization.
 Internal  Forces:  Max     0.000116325 RMS     0.000062685
 Search for a local minimum.
 Step number   1 out of a maximum of    2
 All quantities printed in internal units (Hartrees-Bohrs-Radians)
 Second derivative matrix not updated -- analytic derivatives used.
 The second derivative matrix:
                          R1        R2        R3        R4        R5
           R1           0.64936
           R2           0.00647   0.36019
           R3           0.00647   0.00199   0.36019
           R4           0.00647   0.00069  -0.00046   0.36019
           R5           0.00647  -0.00046   0.00069   0.00199   0.36019
           A1           0.01064   0.00460  -0.01164  -0.00342   0.00441
           A2           0.01064  -0.01164   0.00460   0.00441  -0.00342
           A3          -0.02128   0.00704   0.00704  -0.00099  -0.00099
           A4           0.01064  -0.00342   0.00441   0.00460  -0.01164
           A5           0.01064   0.00441  -0.00342  -0.01164   0.00460
           A6          -0.02128  -0.00099  -0.00099   0.00704   0.00704
           D1          -0.00000  -0.00000   0.00000  -0.00000   0.00000
           D2           0.00000  -0.00000  -0.00000   0.00000  -0.00000
           D3           0.00000   0.00000  -0.00000  -0.00000  -0.00000
           D4           0.00000   0.00000  -0.00000   0.00000  -0.00000
                          A1        A2        A3        A4        A5
           A1           0.08158
           A2          -0.04485   0.08158
           A3          -0.03674  -0.03674   0.07347
           A4          -0.00904   0.01047  -0.00143   0.08158
           A5           0.01047  -0.00904  -0.00143  -0.04485   0.08158
           A6          -0.00143  -0.00143   0.00287  -0.03674  -0.03674
           D1           0.00000  -0.00000   0.00000   0.00000  -0.00000
           D2           0.00000  -0.00000  -0.00000  -0.00000   0.00000
           D3          -0.00000   0.00000   0.00000   0.00000  -0.00000
           D4          -0.00000   0.00000  -0.00000  -0.00000   0.00000
                          A6        D1        D2        D3        D4
           A6           0.07347
           D1           0.00000   0.02525
           D2           0.00000   0.00830   0.03201
           D3          -0.00000   0.00830  -0.01541   0.03201
           D4          -0.00000  -0.00866   0.00830   0.00830   0.02525
     Eigenvalues ---    0.03319   0.03391   0.04742   0.10515   0.10664
     Eigenvalues ---    0.11147   0.14322   0.35963   0.35976   0.36240
     Eigenvalues ---    0.36270   0.652401000.000001000.000001000.00000
 Angle between quadratic step and forces=  23.79 degrees.
 Linear search not attempted -- first point.
 Iteration  1 RMS(Cart)=  0.00021671 RMS(Int)=  0.00000001
 Iteration  2 RMS(Cart)=  0.00000001 RMS(Int)=  0.00000000
 ClnCor:  largest displacement from symmetrization is 3.68D-13 for atom     5.
 Variable       Old X    -DE/DX   Delta X   Delta X   Delta X     New X
                                 (Linear)    (Quad)   (Total)
    R1        2.51349   0.00012   0.00000   0.00015   0.00015   2.51364
    R2        2.05320   0.00011   0.00000   0.00029   0.00029   2.05349
    R3        2.05320   0.00011   0.00000   0.00029   0.00029   2.05349
    R4        2.05320   0.00011   0.00000   0.00029   0.00029   2.05349
    R5        2.05320   0.00011   0.00000   0.00029   0.00029   2.05349
    A1        2.12608   0.00001   0.00000   0.00009   0.00009   2.12617
    A2        2.12608   0.00001   0.00000   0.00009   0.00009   2.12617
    A3        2.03103  -0.00002   0.00000  -0.00018  -0.00018   2.03085
    A4        2.12608   0.00001   0.00000   0.00009   0.00009   2.12617
    A5        2.12608   0.00001   0.00000   0.00009   0.00009   2.12617
    A6        2.03103  -0.00002   0.00000  -0.00018  -0.00018   2.03085
    D1        0.00000   0.00000   0.00000   0.00000   0.00000   0.00000
    D2        3.14159  -0.00000   0.00000  -0.00000   0.00000   3.14159
    D3        3.14159   0.00000   0.00000   0.00000   0.00000   3.14159
    D4        0.00000  -0.00000   0.00000  -0.00000   0.00000   0.00000
         Item               Value     Threshold  Converged?
 Maximum Force            0.000116     0.000450     YES
 RMS     Force            0.000063     0.000300     YES
 Maximum Displacement     0.000389     0.001800     YES
 RMS     Displacement     0.000217     0.001200     YES
 Predicted change in Energy=-7.568874D-08
 Optimization completed.
    -- Stationary point found.
                           ----------------------------
                           !   Optimized Parameters   !
                           ! (Angstroms and Degrees)  !
 --------------------------                            --------------------------
 ! Name  Definition              Value          Derivative Info.                !
 --------------------------------------------------------------------------------
 ! R1    R(1,2)                  1.3301         -DE/DX =    0.0001              !
 ! R2    R(1,3)                  1.0865         -DE/DX =    0.0001              !
 ! R3    R(1,6)                  1.0865         -DE/DX =    0.0001              !
 ! R4    R(2,4)                  1.0865         -DE/DX =    0.0001              !
 ! R5    R(2,5)                  1.0865         -DE/DX =    0.0001              !
 ! A1    A(2,1,3)              121.8152         -DE/DX =    0.0                 !
 ! A2    A(2,1,6)              121.8152         -DE/DX =    0.0                 !
 ! A3    A(3,1,6)              116.3697         -DE/DX =    0.0                 !
 ! A4    A(1,2,4)              121.8152         -DE/DX =    0.0                 !
 ! A5    A(1,2,5)              121.8152         -DE/DX =    0.0                 !
 ! A6    A(4,2,5)              116.3697         -DE/DX =    0.0                 !
 ! D1    D(3,1,2,4)              0.0            -DE/DX =    0.0                 !
 ! D2    D(3,1,2,5)            180.0            -DE/DX =    0.0                 !
 ! D3    D(6,1,2,4)            180.0            -DE/DX =    0.0                 !
 ! D4    D(6,1,2,5)              0.0            -DE/DX =    0.0                 !
 --------------------------------------------------------------------------------
 GradGradGradGradGradGradGradGradGradGradGradGradGradGradGradGradGradGrad

 Leave Link  103 at Tue Aug 20 19:19:18 2024, MaxMem=   33554432 cpu:       0.0
 (Enter /programs/64bit/g09/g09-gfortran/bin/l9999.exe)
 1\1\GINC-MOLMOD\Freq\RB3LYP\6-31G(d,p)\C2H4\OSPITE\20-Aug-2024\0\\#P G
 eom=AllCheck Guess=TCheck SCRF=Check GenChk RB3LYP/6-31G(d,p) Freq\\et
 hene\\0,1\C,0.,0.,0.0024595463\C,0.,0.,1.3325404537\H,0.9232619907,0.,
 -0.5703255025\H,0.9232619907,0.,1.9053255025\H,-0.9232619907,0.,1.9053
 255025\H,-0.9232619907,0.,-0.5703255025\\Version=EM64L-G09RevA.02\Stat
 e=1-AG\HF=-78.5938075\RMSD=2.824e-10\RMSF=5.047e-05\ZeroPoint=0.051133
 4\Thermal=0.0541766\Dipole=0.,0.,0.\DipoleDeriv=0.130591,0.,0.,0.,-0.2
 64865,0.,0.,0.,0.0067946,0.130591,0.,0.,0.,-0.264865,0.,0.,0.,0.006794
 6,-0.0652955,0.,0.0763571,0.,0.1324325,0.,0.0562421,0.,-0.0033973,-0.0
 652955,0.,-0.0763571,0.,0.1324325,0.,-0.0562421,0.,-0.0033973,-0.06529
 55,0.,0.0763571,0.,0.1324325,0.,0.0562421,0.,-0.0033973,-0.0652955,0.,
 -0.0763571,0.,0.1324325,0.,-0.0562421,0.,-0.0033973\Polar=20.6904706,0
 .,8.8977361,0.,0.,31.065548\PG=D02H [C2"(C1.C1),SG(H4)]\NImag=0\\0.639
 16667,0.,0.10817218,0.,0.,0.87895251,-0.11349111,0.,0.,0.63916667,0.,-
 0.04598102,0.,0.,0.10817218,0.,0.,-0.59001829,0.,0.,0.87895251,-0.2666
 4020,0.,0.12526783,0.00380242,0.,-0.00207446,0.27619368,0.,-0.03626897
 ,0.,0.,0.00517339,0.,0.,0.02420110,0.12149137,0.,-0.13141832,0.0299745
 0,0.,-0.01304879,-0.13656494,0.,0.13815766,0.00380242,0.,0.00207446,-0
 .26664020,0.,-0.12526783,0.00133650,0.,-0.00013871,0.27619368,0.,0.005
 17339,0.,0.,-0.03626897,0.,0.,-0.00869450,0.,0.,0.02420110,-0.02997450
 ,0.,-0.01304879,-0.12149137,0.,-0.13141832,0.00013871,0.,0.00143672,0.
 13656494,0.,0.13815766,0.00380242,0.,-0.00207446,-0.26664020,0.,0.1252
 6783,0.00162319,0.,-0.00076468,-0.01631560,0.,0.01399755,0.27619368,0.
 ,0.00517339,0.,0.,-0.03626897,0.,0.,0.01312980,0.,0.,0.00245918,0.,0.,
 0.02420110,0.02997450,0.,-0.01304879,0.12149137,0.,-0.13141832,-0.0007
 6468,0.,-0.00500949,-0.01399755,0.,0.00988222,-0.13656494,0.,0.1381576
 6,-0.26664020,0.,-0.12526783,0.00380242,0.,0.00207446,-0.01631560,0.,-
 0.01399755,0.00162319,0.,0.00076468,0.00133650,0.,-0.00013871,0.276193
 68,0.,-0.03626897,0.,0.,0.00517339,0.,0.,0.00245918,0.,0.,0.01312980,0
 .,0.,-0.00869450,0.,0.,0.02420110,-0.12149137,0.,-0.13141832,-0.029974
 50,0.,-0.01304879,0.01399755,0.,0.00988222,0.00076468,0.,-0.00500949,0
 .00013871,0.,0.00143672,0.13656494,0.,0.13815766\\0.,0.,-0.00002013,0.
 ,0.,0.00002013,-0.00008127,0.,0.00006823,-0.00008127,0.,-0.00006823,0.
 00008127,0.,-0.00006823,0.00008127,0.,0.00006823\\\@


 STEINBACH'S GUIDELINES FOR SYSTEMS PROGRAMMING:
 NEVER TEST FOR AN ERROR CONDITION YOU DON'T KNOW HOW
 TO HANDLE.
 Job cpu time:  0 days  0 hours  0 minutes 28.6 seconds.
 File lengths (MBytes):  RWF=      5 Int=      0 D2E=      0 Chk=      1 Scr=      1
 Normal termination of Gaussian 09 at Tue Aug 20 19:19:18 2024.
