 Entering Gaussian System, Link 0=/programs/64bit/g09/g09-gfortran/bin/g09
 Input=ethyne.com
 Output=ethyne.log
 Initial command:
 /programs/64bit/g09/g09-gfortran/bin/l1.exe /home/ospite/Desktop/MMfP/Project8/gaussian_simulations/Gau-3284.inp -scrdir=/home/ospite/Desktop/MMfP/Project8/gaussian_simulations/
 Entering Link 1 = /programs/64bit/g09/g09-gfortran/bin/l1.exe PID=      3286.
  
 Copyright (c) 1988,1990,1992,1993,1995,1998,2003,2009, Gaussian, Inc.
                  All Rights Reserved.
  
 This is part of the Gaussian(R) 09 program.  It is based on
 the Gaussian(R) 03 system (copyright 2003, Gaussian, Inc.),
 the Gaussian(R) 98 system (copyright 1998, Gaussian, Inc.),
 the Gaussian(R) 94 system (copyright 1995, Gaussian, Inc.),
 the Gaussian 92(TM) system (copyright 1992, Gaussian, Inc.),
 the Gaussian 90(TM) system (copyright 1990, Gaussian, Inc.),
 the Gaussian 88(TM) system (copyright 1988, Gaussian, Inc.),
 the Gaussian 86(TM) system (copyright 1986, Carnegie Mellon
 University), and the Gaussian 82(TM) system (copyright 1983,
 Carnegie Mellon University). Gaussian is a federally registered
 trademark of Gaussian, Inc.
  
 This software contains proprietary and confidential information,
 including trade secrets, belonging to Gaussian, Inc.
  
 This software is provided under written license and may be
 used, copied, transmitted, or stored only in accord with that
 written license.
  
 The following legend is applicable only to US Government
 contracts under FAR:
  
                    RESTRICTED RIGHTS LEGEND
  
 Use, reproduction and disclosure by the US Government is
 subject to restrictions as set forth in subparagraphs (a)
 and (c) of the Commercial Computer Software - Restricted
 Rights clause in FAR 52.227-19.
  
 Gaussian, Inc.
 340 Quinnipiac St., Bldg. 40, Wallingford CT 06492
  
  
 ---------------------------------------------------------------
 Warning -- This program may not be used in any manner that
 competes with the business of Gaussian, Inc. or will provide
 assistance to any competitor of Gaussian, Inc.  The licensee
 of this program is prohibited from giving any competitor of
 Gaussian, Inc. access to this program.  By using this program,
 the user acknowledges that Gaussian, Inc. is engaged in the
 business of creating and licensing software in the field of
 computational chemistry and represents and warrants to the
 licensee that it is not a competitor of Gaussian, Inc. and that
 it will not use this program in any manner prohibited above.
 ---------------------------------------------------------------
  

 Cite this work as:
 Gaussian 09, Revision A.02,
 M. J. Frisch, G. W. Trucks, H. B. Schlegel, G. E. Scuseria, 
 M. A. Robb, J. R. Cheeseman, G. Scalmani, V. Barone, B. Mennucci, 
 G. A. Petersson, H. Nakatsuji, M. Caricato, X. Li, H. P. Hratchian, 
 A. F. Izmaylov, J. Bloino, G. Zheng, J. L. Sonnenberg, M. Hada, 
 M. Ehara, K. Toyota, R. Fukuda, J. Hasegawa, M. Ishida, T. Nakajima, 
 Y. Honda, O. Kitao, H. Nakai, T. Vreven, J. A. Montgomery, Jr., 
 J. E. Peralta, F. Ogliaro, M. Bearpark, J. J. Heyd, E. Brothers, 
 K. N. Kudin, V. N. Staroverov, R. Kobayashi, J. Normand, 
 K. Raghavachari, A. Rendell, J. C. Burant, S. S. Iyengar, J. Tomasi, 
 M. Cossi, N. Rega, J. M. Millam, M. Klene, J. E. Knox, J. B. Cross, 
 V. Bakken, C. Adamo, J. Jaramillo, R. Gomperts, R. E. Stratmann, 
 O. Yazyev, A. J. Austin, R. Cammi, C. Pomelli, J. W. Ochterski, 
 R. L. Martin, K. Morokuma, V. G. Zakrzewski, G. A. Voth, 
 P. Salvador, J. J. Dannenberg, S. Dapprich, A. D. Daniels, 
 O. Farkas, J. B. Foresman, J. V. Ortiz, J. Cioslowski, 
 and D. J. Fox, Gaussian, Inc., Wallingford CT, 2009.
 
 ******************************************
 Gaussian 09:  EM64L-G09RevA.02 11-Jun-2009
                20-Aug-2024 
 ******************************************
 ---------------------------------------------
 #p B3LYP/6-31g(d,p) opt freq pop=full gfinput
 ---------------------------------------------
 1/14=-1,18=20,19=15,26=3,38=1/1,3;
 2/9=110,12=2,17=6,18=5,40=1/2;
 3/5=1,6=6,7=101,11=2,16=1,24=10,25=1,30=1,71=1,74=-5/1,2,3;
 4//1;
 5/5=2,38=5/2;
 6/7=3,28=1/1;
 7//1,2,3,16;
 1/14=-1,18=20,19=15/3(2);
 2/9=110/2;
 99//99;
 2/9=110/2;
 3/5=1,6=6,7=101,11=2,16=1,25=1,30=1,71=1,74=-5/1,2,3;
 4/5=5,16=3/1;
 5/5=2,38=5/2;
 7//1,2,3,16;
 1/14=-1,18=20,19=15/3(-5);
 2/9=110/2;
 6/7=3,19=2,28=1/1;
 99/9=1/99;
 Leave Link    1 at Tue Aug 20 19:19:32 2024, MaxMem=          0 cpu:       0.1
 (Enter /programs/64bit/g09/g09-gfortran/bin/l101.exe)
 ------
 ethyne
 ------
 Symbolic Z-matrix:
 Charge =  0 Multiplicity = 1
 c
 c                    1    cc2
 h                    1    hc3      2    hcc3
 h                    2    hc4      1    hcc4     3    dih4     0
       Variables:
  cc2                   1.203                    
  hc3                   1.06                     
  hcc3                180.                       
  hc4                   1.06                     
  hcc4                180.                       
  dih4                  0.                       
 
 NAtoms=      4 NQM=      4 NQMF=      0 NMic=      0 NMicF=      0 NTot=      4.
                    Isotopes and Nuclear Properties:
 (Nuclear quadrupole moments (NQMom) in fm**2, nuclear magnetic moments (NMagM)
  in nuclear magnetons)

  Atom         1           2           3           4
 IAtWgt=          12          12           1           1
 AtmWgt=  12.0000000  12.0000000   1.0078250   1.0078250
 NucSpn=           0           0           1           1
 AtZEff=   0.0000000   0.0000000   0.0000000   0.0000000
 NQMom=    0.0000000   0.0000000   0.0000000   0.0000000
 NMagM=    0.0000000   0.0000000   2.7928460   2.7928460
 Leave Link  101 at Tue Aug 20 19:19:32 2024, MaxMem=   33554432 cpu:       0.1
 (Enter /programs/64bit/g09/g09-gfortran/bin/l103.exe)

 GradGradGradGradGradGradGradGradGradGradGradGradGradGradGradGradGradGrad
 Berny optimization.
 Initialization pass.
                           ----------------------------
                           !    Initial Parameters    !
                           ! (Angstroms and Degrees)  !
 --------------------------                            --------------------------
 ! Name  Definition              Value          Derivative Info.                !
 --------------------------------------------------------------------------------
 ! R1    R(1,2)                  1.203          estimate D2E/DX2                !
 ! R2    R(1,3)                  1.06           estimate D2E/DX2                !
 ! R3    R(2,4)                  1.06           estimate D2E/DX2                !
 ! A1    L(2,1,3,-1,-1)        180.0            estimate D2E/DX2                !
 ! A2    L(1,2,4,-1,-1)        180.0            estimate D2E/DX2                !
 ! A3    L(2,1,3,-2,-2)        180.0            estimate D2E/DX2                !
 ! A4    L(1,2,4,-2,-2)        180.0            estimate D2E/DX2                !
 --------------------------------------------------------------------------------
 Trust Radius=3.00D-01 FncErr=1.00D-07 GrdErr=1.00D-06
 Number of steps in this run=  20 maximum allowed number of steps= 100.
 GradGradGradGradGradGradGradGradGradGradGradGradGradGradGradGradGradGrad

 Leave Link  103 at Tue Aug 20 19:19:32 2024, MaxMem=   33554432 cpu:       0.0
 (Enter /programs/64bit/g09/g09-gfortran/bin/l202.exe)
                          Input orientation:                          
 ---------------------------------------------------------------------
 Center     Atomic      Atomic             Coordinates (Angstroms)
 Number     Number       Type             X           Y           Z
 ---------------------------------------------------------------------
      1          6           0        0.000000    0.000000    0.000000
      2          6           0        0.000000    0.000000    1.203000
      3          1           0        0.000000    0.000000   -1.060000
      4          1           0        0.000000    0.000000    2.263000
 ---------------------------------------------------------------------
                    Distance matrix (angstroms):
                    1          2          3          4
     1  C    0.000000
     2  C    1.203000   0.000000
     3  H    1.060000   2.263000   0.000000
     4  H    2.263000   1.060000   3.323000   0.000000
 Stoichiometry    C2H2
 Framework group  D*H[C*(HC.CH)]
 Deg. of freedom     2
 Full point group                 D*H     NOp   8
 Largest Abelian subgroup         D2H     NOp   8
 Largest concise Abelian subgroup C2      NOp   2
                         Standard orientation:                         
 ---------------------------------------------------------------------
 Center     Atomic      Atomic             Coordinates (Angstroms)
 Number     Number       Type             X           Y           Z
 ---------------------------------------------------------------------
      1          6           0        0.000000    0.000000    0.601500
      2          6           0        0.000000    0.000000   -0.601500
      3          1           0        0.000000    0.000000    1.661500
      4          1           0        0.000000    0.000000   -1.661500
 ---------------------------------------------------------------------
 Rotational constants (GHZ):      0.0000000     35.4711131     35.4711131
 Leave Link  202 at Tue Aug 20 19:19:32 2024, MaxMem=   33554432 cpu:       0.0
 (Enter /programs/64bit/g09/g09-gfortran/bin/l301.exe)
 Standard basis: 6-31G(d,p) (6D, 7F)
 Ernie: Thresh=  0.10000D-02 Tol=  0.10000D-05 Strict=F.
 AO basis set in the form of general basis input (Overlap normalization):
      1 0
 S   6 1.00       0.000000000000
      0.3047524880D+04  0.1834737132D-02
      0.4573695180D+03  0.1403732281D-01
      0.1039486850D+03  0.6884262226D-01
      0.2921015530D+02  0.2321844432D+00
      0.9286662960D+01  0.4679413484D+00
      0.3163926960D+01  0.3623119853D+00
 SP   3 1.00       0.000000000000
      0.7868272350D+01 -0.1193324198D+00  0.6899906659D-01
      0.1881288540D+01 -0.1608541517D+00  0.3164239610D+00
      0.5442492580D+00  0.1143456438D+01  0.7443082909D+00
 SP   1 1.00       0.000000000000
      0.1687144782D+00  0.1000000000D+01  0.1000000000D+01
 D   1 1.00       0.000000000000
      0.8000000000D+00  0.1000000000D+01
 ****
      2 0
 S   6 1.00       0.000000000000
      0.3047524880D+04  0.1834737132D-02
      0.4573695180D+03  0.1403732281D-01
      0.1039486850D+03  0.6884262226D-01
      0.2921015530D+02  0.2321844432D+00
      0.9286662960D+01  0.4679413484D+00
      0.3163926960D+01  0.3623119853D+00
 SP   3 1.00       0.000000000000
      0.7868272350D+01 -0.1193324198D+00  0.6899906659D-01
      0.1881288540D+01 -0.1608541517D+00  0.3164239610D+00
      0.5442492580D+00  0.1143456438D+01  0.7443082909D+00
 SP   1 1.00       0.000000000000
      0.1687144782D+00  0.1000000000D+01  0.1000000000D+01
 D   1 1.00       0.000000000000
      0.8000000000D+00  0.1000000000D+01
 ****
      3 0
 S   3 1.00       0.000000000000
      0.1873113696D+02  0.3349460434D-01
      0.2825394365D+01  0.2347269535D+00
      0.6401216923D+00  0.8137573261D+00
 S   1 1.00       0.000000000000
      0.1612777588D+00  0.1000000000D+01
 P   1 1.00       0.000000000000
      0.1100000000D+01  0.1000000000D+01
 ****
      4 0
 S   3 1.00       0.000000000000
      0.1873113696D+02  0.3349460434D-01
      0.2825394365D+01  0.2347269535D+00
      0.6401216923D+00  0.8137573261D+00
 S   1 1.00       0.000000000000
      0.1612777588D+00  0.1000000000D+01
 P   1 1.00       0.000000000000
      0.1100000000D+01  0.1000000000D+01
 ****

 There are    11 symmetry adapted basis functions of AG  symmetry.
 There are     1 symmetry adapted basis functions of B1G symmetry.
 There are     4 symmetry adapted basis functions of B2G symmetry.
 There are     4 symmetry adapted basis functions of B3G symmetry.
 There are     1 symmetry adapted basis functions of AU  symmetry.
 There are    11 symmetry adapted basis functions of B1U symmetry.
 There are     4 symmetry adapted basis functions of B2U symmetry.
 There are     4 symmetry adapted basis functions of B3U symmetry.
 Integral buffers will be    131072 words long.
 Raffenetti 2 integral format.
 Two-electron integral symmetry is turned on.
    40 basis functions,    70 primitive gaussians,    40 cartesian basis functions
     7 alpha electrons        7 beta electrons
       nuclear repulsion energy        24.7917247706 Hartrees.
 IExCor=  402 DFT=T Ex+Corr=B3LYP ExCW=0 ScaHFX=  0.200000
 ScaDFX=  0.800000  0.720000  1.000000  0.810000 ScalE2=  1.000000  1.000000
 IRadAn=      0 IRanWt=     -1 IRanGd=            0 ICorTp=0
 NAtoms=    4 NActive=    4 NUniq=    2 SFac= 3.00D+00 NAtFMM=   80 NAOKFM=F Big=F
 Leave Link  301 at Tue Aug 20 19:19:32 2024, MaxMem=   33554432 cpu:       0.1
 (Enter /programs/64bit/g09/g09-gfortran/bin/l302.exe)
 NPDir=0 NMtPBC=     1 NCelOv=     1 NCel=       1 NClECP=     1 NCelD=      1
         NCelK=      1 NCelE2=     1 NClLst=     1 CellRange=     0.0.
 One-electron integrals computed using PRISM.
 One-electron integral symmetry used in STVInt
 NBasis=    40 RedAO= T  NBF=    11     1     4     4     1    11     4     4
 NBsUse=    40 1.00D-06 NBFU=    11     1     4     4     1    11     4     4
 Precomputing XC quadrature grid using
 IXCGrd= 2 IRadAn=           0 IRanWt=          -1 IRanGd=           0 AccXCQ= 1.00D-10.
 NRdTot=     244 NPtTot=       30968 NUsed=       32741 NTot=       32773
 NSgBfM=    40    40    40    40    40 NAtAll=     4     4.
 Leave Link  302 at Tue Aug 20 19:19:33 2024, MaxMem=   33554432 cpu:       0.2
 (Enter /programs/64bit/g09/g09-gfortran/bin/l303.exe)
 DipDrv:  MaxL=1.
 Leave Link  303 at Tue Aug 20 19:19:33 2024, MaxMem=   33554432 cpu:       0.0
 (Enter /programs/64bit/g09/g09-gfortran/bin/l401.exe)
 Harris functional with IExCor=  402 diagonalized for initial guess.
 ExpMin= 1.61D-01 ExpMax= 3.05D+03 ExpMxC= 4.57D+02 IAcc=1 IRadAn=         1 AccDes= 0.00D+00
 HarFok:  IExCor=  402 AccDes= 0.00D+00 IRadAn=         1 IDoV= 1
 ScaDFX=  1.000000  1.000000  1.000000  1.000000
 FoFCou: FMM=F IPFlag=           0 FMFlag=      100000 FMFlg1=           0
         NFxFlg=           0 DoJE=T BraDBF=F KetDBF=T FulRan=T
         Omega=  0.000000  0.000000  1.000000  0.000000  0.000000 ICntrl=     500 IOpCl=  0
         NMat0=    1 NMatS0=    1 NMatT0=    0 NMatD0=    1 NMtDS0=    0 NMtDT0=    0
         I1Cent=           4 NGrid=           0.
 Petite list used in FoFCou.
 Harris En= -77.3855095644769    
 Initial guess orbital symmetries:
       Occupied  (SGG) (SGU) (SGG) (SGU) (SGG) (PIU) (PIU)
       Virtual   (PIG) (PIG) (SGU) (SGG) (SGU) (SGG) (PIU) (PIU)
                 (PIG) (PIG) (SGU) (SGG) (SGG) (SGU) (PIU) (PIU)
                 (DLTG) (DLTG) (SGU) (DLTU) (DLTU) (PIG) (PIG)
                 (SGG) (PIU) (PIU) (SGU) (PIG) (PIG) (SGG) (SGU)
                 (SGG) (SGU)
 The electronic state of the initial guess is 1-SGG.
 Leave Link  401 at Tue Aug 20 19:19:33 2024, MaxMem=   33554432 cpu:       0.2
 (Enter /programs/64bit/g09/g09-gfortran/bin/l502.exe)
 Closed shell SCF:
 Requested convergence on RMS density matrix=1.00D-08 within 128 cycles.
 Requested convergence on MAX density matrix=1.00D-06.
 Requested convergence on             energy=1.00D-06.
 No special actions if energy rises.
 Using DIIS extrapolation, IDIIS=  1040.
 Integral symmetry usage will be decided dynamically.
        32692 words used for storage of precomputed grid.
 Keep R1 ints in memory in canonical form, NReq=1252184.
 IEnd=       56318 IEndB=       56318 NGot=    33554432 MDV=    33179757
 LenX=    33179757 LenY=    33177716
 Symmetry not used in FoFDir.
 MinBra= 0 MaxBra= 2 Meth= 1.
 IRaf=       0 NMat=   1 IRICut=       1 DoRegI=T DoRafI=F ISym2E= 0 JSym2E=0.
 Integral accuracy reduced to 1.0D-05 until final iterations.

 Cycle   1  Pass 0  IDiag  1:
 E= -77.2498693179710    
 DIIS: error= 4.61D-02 at cycle   1 NSaved=   1.
 NSaved= 1 IEnMin= 1 EnMin= -77.2498693179710     IErMin= 1 ErrMin= 4.61D-02
 ErrMax= 4.61D-02 EMaxC= 1.00D-01 BMatC= 6.88D-02 BMatP= 6.88D-02
 IDIUse=3 WtCom= 5.39D-01 WtEn= 4.61D-01
 Coeff-Com:  0.100D+01
 Coeff-En:   0.100D+01
 Coeff:      0.100D+01
 Gap=     0.314 Goal=   None    Shift=    0.000
 GapD=    0.314 DampG=1.000 DampE=0.500 DampFc=0.5000 IDamp=-1.
 Damping current iteration by 5.00D-01
 RMSDP=1.18D-02 MaxDP=8.84D-02              OVMax= 1.68D-01

 Cycle   2  Pass 0  IDiag  1:
 E= -77.2910361136082     Delta-E=       -0.041166795637 Rises=F Damp=T
 DIIS: error= 7.91D-03 at cycle   2 NSaved=   2.
 NSaved= 2 IEnMin= 2 EnMin= -77.2910361136082     IErMin= 2 ErrMin= 7.91D-03
 ErrMax= 7.91D-03 EMaxC= 1.00D-01 BMatC= 1.54D-03 BMatP= 6.88D-02
 IDIUse=3 WtCom= 9.21D-01 WtEn= 7.91D-02
 Coeff-Com: -0.658D-01 0.107D+01
 Coeff-En:   0.000D+00 0.100D+01
 Coeff:     -0.606D-01 0.106D+01
 Gap=     0.336 Goal=   None    Shift=    0.000
 RMSDP=1.44D-03 MaxDP=1.36D-02 DE=-4.12D-02 OVMax= 8.02D-02

 Cycle   3  Pass 0  IDiag  1:
 E= -77.3294984879442     Delta-E=       -0.038462374336 Rises=F Damp=F
 DIIS: error= 5.89D-04 at cycle   3 NSaved=   3.
 NSaved= 3 IEnMin= 3 EnMin= -77.3294984879442     IErMin= 3 ErrMin= 5.89D-04
 ErrMax= 5.89D-04 EMaxC= 1.00D-01 BMatC= 1.18D-05 BMatP= 1.54D-03
 IDIUse=3 WtCom= 9.94D-01 WtEn= 5.89D-03
 Coeff-Com: -0.123D-01 0.472D-01 0.965D+00
 Coeff-En:   0.000D+00 0.000D+00 0.100D+01
 Coeff:     -0.122D-01 0.469D-01 0.965D+00
 Gap=     0.334 Goal=   None    Shift=    0.000
 RMSDP=1.92D-04 MaxDP=1.94D-03 DE=-3.85D-02 OVMax= 1.73D-03

 Cycle   4  Pass 0  IDiag  1:
 E= -77.3295124571466     Delta-E=       -0.000013969202 Rises=F Damp=F
 DIIS: error= 5.22D-05 at cycle   4 NSaved=   4.
 NSaved= 4 IEnMin= 4 EnMin= -77.3295124571466     IErMin= 4 ErrMin= 5.22D-05
 ErrMax= 5.22D-05 EMaxC= 1.00D-01 BMatC= 9.77D-08 BMatP= 1.18D-05
 IDIUse=1 WtCom= 1.00D+00 WtEn= 0.00D+00
 Coeff-Com: -0.982D-03 0.688D-03 0.104D+00 0.896D+00
 Coeff:     -0.982D-03 0.688D-03 0.104D+00 0.896D+00
 Gap=     0.334 Goal=   None    Shift=    0.000
 RMSDP=1.11D-05 MaxDP=1.03D-04 DE=-1.40D-05 OVMax= 1.44D-04

 Cycle   5  Pass 0  IDiag  1:
 E= -77.3295125760428     Delta-E=       -0.000000118896 Rises=F Damp=F
 DIIS: error= 5.56D-06 at cycle   5 NSaved=   5.
 NSaved= 5 IEnMin= 5 EnMin= -77.3295125760428     IErMin= 5 ErrMin= 5.56D-06
 ErrMax= 5.56D-06 EMaxC= 1.00D-01 BMatC= 8.86D-10 BMatP= 9.77D-08
 IDIUse=1 WtCom= 1.00D+00 WtEn= 0.00D+00
 Coeff-Com: -0.520D-04-0.266D-03 0.449D-02 0.746D-01 0.921D+00
 Coeff:     -0.520D-04-0.266D-03 0.449D-02 0.746D-01 0.921D+00
 Gap=     0.334 Goal=   None    Shift=    0.000
 RMSDP=1.48D-06 MaxDP=1.27D-05 DE=-1.19D-07 OVMax= 9.02D-06

 Initial convergence to 1.0D-05 achieved.  Increase integral accuracy.
 Cycle   6  Pass 1  IDiag  1:
 E= -77.3295071309150     Delta-E=        0.000005445128 Rises=F Damp=F
 DIIS: error= 4.74D-06 at cycle   1 NSaved=   1.
 NSaved= 1 IEnMin= 1 EnMin= -77.3295071309150     IErMin= 1 ErrMin= 4.74D-06
 ErrMax= 4.74D-06 EMaxC= 1.00D-01 BMatC= 4.56D-10 BMatP= 4.56D-10
 IDIUse=1 WtCom= 1.00D+00 WtEn= 0.00D+00
 Coeff-Com:  0.100D+01
 Coeff:      0.100D+01
 Gap=     0.334 Goal=   None    Shift=    0.000
 RMSDP=1.48D-06 MaxDP=1.27D-05 DE= 5.45D-06 OVMax= 3.93D-06

 Cycle   7  Pass 1  IDiag  1:
 E= -77.3295071310842     Delta-E=       -0.000000000169 Rises=F Damp=F
 DIIS: error= 2.81D-07 at cycle   2 NSaved=   2.
 NSaved= 2 IEnMin= 2 EnMin= -77.3295071310842     IErMin= 2 ErrMin= 2.81D-07
 ErrMax= 2.81D-07 EMaxC= 1.00D-01 BMatC= 1.83D-12 BMatP= 4.56D-10
 IDIUse=1 WtCom= 1.00D+00 WtEn= 0.00D+00
 Coeff-Com: -0.663D-03 0.100D+01
 Coeff:     -0.663D-03 0.100D+01
 Gap=     0.334 Goal=   None    Shift=    0.000
 RMSDP=1.16D-07 MaxDP=8.70D-07 DE=-1.69D-10 OVMax= 6.44D-07

 Cycle   8  Pass 1  IDiag  1:
 E= -77.3295071310857     Delta-E=       -0.000000000002 Rises=F Damp=F
 DIIS: error= 1.36D-07 at cycle   3 NSaved=   3.
 NSaved= 3 IEnMin= 3 EnMin= -77.3295071310857     IErMin= 3 ErrMin= 1.36D-07
 ErrMax= 1.36D-07 EMaxC= 1.00D-01 BMatC= 4.82D-13 BMatP= 1.83D-12
 IDIUse=1 WtCom= 1.00D+00 WtEn= 0.00D+00
 Coeff-Com: -0.409D-02 0.316D+00 0.688D+00
 Coeff:     -0.409D-02 0.316D+00 0.688D+00
 Gap=     0.334 Goal=   None    Shift=    0.000
 RMSDP=2.02D-08 MaxDP=1.80D-07 DE=-1.53D-12 OVMax= 2.94D-07

 Cycle   9  Pass 1  IDiag  1:
 E= -77.3295071310864     Delta-E=       -0.000000000001 Rises=F Damp=F
 DIIS: error= 3.71D-08 at cycle   4 NSaved=   4.
 NSaved= 4 IEnMin= 4 EnMin= -77.3295071310864     IErMin= 4 ErrMin= 3.71D-08
 ErrMax= 3.71D-08 EMaxC= 1.00D-01 BMatC= 3.64D-14 BMatP= 4.82D-13
 IDIUse=1 WtCom= 1.00D+00 WtEn= 0.00D+00
 Coeff-Com: -0.160D-02 0.705D-01 0.254D+00 0.677D+00
 Coeff:     -0.160D-02 0.705D-01 0.254D+00 0.677D+00
 Gap=     0.334 Goal=   None    Shift=    0.000
 RMSDP=4.25D-09 MaxDP=2.95D-08 DE=-6.54D-13 OVMax= 6.28D-08

 SCF Done:  E(RB3LYP) =  -77.3295071311     A.U. after    9 cycles
             Convg  =    0.4253D-08             -V/T =  2.0098
 KE= 7.657716413173D+01 PE=-2.286250027678D+02 EE= 4.992660673440D+01
 Leave Link  502 at Tue Aug 20 19:19:34 2024, MaxMem=   33554432 cpu:       0.9
 (Enter /programs/64bit/g09/g09-gfortran/bin/l601.exe)
 Copying SCF densities to generalized density rwf, IOpCl= 0 IROHF=0.

 **********************************************************************

            Population analysis using the SCF density.

 **********************************************************************

 Orbital symmetries:
       Occupied  (SGG) (SGU) (SGG) (SGU) (SGG) (PIU) (PIU)
       Virtual   (PIG) (PIG) (SGU) (SGG) (SGU) (SGG) (PIU) (PIU)
                 (PIG) (PIG) (SGU) (SGG) (SGG) (SGU) (PIU) (PIU)
                 (SGU) (DLTG) (DLTG) (PIG) (PIG) (DLTU) (DLTU)
                 (SGG) (PIU) (PIU) (SGU) (PIG) (PIG) (SGG) (SGU)
                 (SGG) (SGU)
 The electronic state is 1-SGG.
 Alpha  occ. eigenvalues --  -10.19112 -10.18867  -0.74344  -0.56552  -0.49162
 Alpha  occ. eigenvalues --   -0.28281  -0.28281
 Alpha virt. eigenvalues --    0.05109   0.05109   0.10856   0.15148   0.42685
 Alpha virt. eigenvalues --    0.46994   0.53254   0.53254   0.65483   0.65483
 Alpha virt. eigenvalues --    0.74696   0.81361   1.02675   1.20777   1.37729
 Alpha virt. eigenvalues --    1.37729   1.47905   1.54860   1.54860   1.93317
 Alpha virt. eigenvalues --    1.93317   1.94484   1.94484   2.25721   2.38868
 Alpha virt. eigenvalues --    2.38868   2.74469   3.04236   3.04236   3.36311
 Alpha virt. eigenvalues --    3.83803   4.58750   5.36412
     Molecular Orbital Coefficients:
                           1         2         3         4         5
                       (SGG)--O  (SGU)--O  (SGG)--O  (SGU)--O  (SGG)--O
     Eigenvalues --   -10.19112 -10.18867  -0.74344  -0.56552  -0.49162
   1 1   C  1S          0.70147   0.70233  -0.17516  -0.11360   0.00393
   2        2S          0.03370   0.03565   0.33123   0.22703   0.00427
   3        2PX         0.00000   0.00000   0.00000   0.00000   0.00000
   4        2PY         0.00000   0.00000   0.00000   0.00000   0.00000
   5        2PZ         0.00073  -0.00078  -0.14684   0.20666   0.38944
   6        3S         -0.00376  -0.01634   0.25043   0.20004   0.00003
   7        3PX         0.00000   0.00000   0.00000   0.00000   0.00000
   8        3PY         0.00000   0.00000   0.00000   0.00000   0.00000
   9        3PZ        -0.00034   0.00668   0.02080   0.06575   0.05556
  10        4XX        -0.00743  -0.00704  -0.01659  -0.01068   0.00138
  11        4YY        -0.00743  -0.00704  -0.01659  -0.01068   0.00138
  12        4ZZ        -0.00564  -0.00500   0.00958   0.00510   0.00659
  13        4XY         0.00000   0.00000   0.00000   0.00000   0.00000
  14        4XZ         0.00000   0.00000   0.00000   0.00000   0.00000
  15        4YZ         0.00000   0.00000   0.00000   0.00000   0.00000
  16 2   C  1S          0.70147  -0.70233  -0.17516   0.11360   0.00393
  17        2S          0.03370  -0.03565   0.33123  -0.22703   0.00427
  18        2PX         0.00000   0.00000   0.00000   0.00000   0.00000
  19        2PY         0.00000   0.00000   0.00000   0.00000   0.00000
  20        2PZ        -0.00073  -0.00078   0.14684   0.20666  -0.38944
  21        3S         -0.00376   0.01634   0.25043  -0.20004   0.00003
  22        3PX         0.00000   0.00000   0.00000   0.00000   0.00000
  23        3PY         0.00000   0.00000   0.00000   0.00000   0.00000
  24        3PZ         0.00034   0.00668  -0.02080   0.06575  -0.05556
  25        4XX        -0.00743   0.00704  -0.01659   0.01068   0.00138
  26        4YY        -0.00743   0.00704  -0.01659   0.01068   0.00138
  27        4ZZ        -0.00564   0.00500   0.00958  -0.00510   0.00659
  28        4XY         0.00000   0.00000   0.00000   0.00000   0.00000
  29        4XZ         0.00000   0.00000   0.00000   0.00000   0.00000
  30        4YZ         0.00000   0.00000   0.00000   0.00000   0.00000
  31 3   H  1S         -0.00107  -0.00120   0.07982   0.22080   0.22547
  32        2S          0.00100  -0.00049  -0.00222   0.12480   0.19746
  33        3PX         0.00000   0.00000   0.00000   0.00000   0.00000
  34        3PY         0.00000   0.00000   0.00000   0.00000   0.00000
  35        3PZ         0.00061   0.00062  -0.00843  -0.01267  -0.00862
  36 4   H  1S         -0.00107   0.00120   0.07982  -0.22080   0.22547
  37        2S          0.00100   0.00049  -0.00222  -0.12480   0.19746
  38        3PX         0.00000   0.00000   0.00000   0.00000   0.00000
  39        3PY         0.00000   0.00000   0.00000   0.00000   0.00000
  40        3PZ        -0.00061   0.00062   0.00843  -0.01267   0.00862
                           6         7         8         9        10
                       (PIU)--O  (PIU)--O  (PIG)--V  (PIG)--V  (SGU)--V
     Eigenvalues --    -0.28281  -0.28281   0.05109   0.05109   0.10856
   1 1   C  1S          0.00000   0.00000   0.00000   0.00000   0.10179
   2        2S          0.00000   0.00000   0.00000   0.00000  -0.23674
   3        2PX         0.00000   0.41812   0.41210   0.00000   0.00000
   4        2PY         0.41812   0.00000   0.00000   0.41210   0.00000
   5        2PZ         0.00000   0.00000   0.00000   0.00000  -0.09282
   6        3S          0.00000   0.00000   0.00000   0.00000   0.36129
   7        3PX         0.00000   0.25267   0.69799   0.00000   0.00000
   8        3PY         0.25267   0.00000   0.00000   0.69799   0.00000
   9        3PZ         0.00000   0.00000   0.00000   0.00000  -1.67224
  10        4XX         0.00000   0.00000   0.00000   0.00000  -0.00805
  11        4YY         0.00000   0.00000   0.00000   0.00000  -0.00805
  12        4ZZ         0.00000   0.00000   0.00000   0.00000   0.04387
  13        4XY         0.00000   0.00000   0.00000   0.00000   0.00000
  14        4XZ         0.00000  -0.01772   0.03051   0.00000   0.00000
  15        4YZ        -0.01772   0.00000   0.00000   0.03051   0.00000
  16 2   C  1S          0.00000   0.00000   0.00000   0.00000  -0.10179
  17        2S          0.00000   0.00000   0.00000   0.00000   0.23674
  18        2PX         0.00000   0.41812  -0.41210   0.00000   0.00000
  19        2PY         0.41812   0.00000   0.00000  -0.41210   0.00000
  20        2PZ         0.00000   0.00000   0.00000   0.00000  -0.09282
  21        3S          0.00000   0.00000   0.00000   0.00000  -0.36129
  22        3PX         0.00000   0.25267  -0.69799   0.00000   0.00000
  23        3PY         0.25267   0.00000   0.00000  -0.69799   0.00000
  24        3PZ         0.00000   0.00000   0.00000   0.00000  -1.67224
  25        4XX         0.00000   0.00000   0.00000   0.00000   0.00805
  26        4YY         0.00000   0.00000   0.00000   0.00000   0.00805
  27        4ZZ         0.00000   0.00000   0.00000   0.00000  -0.04387
  28        4XY         0.00000   0.00000   0.00000   0.00000   0.00000
  29        4XZ         0.00000   0.01772   0.03051   0.00000   0.00000
  30        4YZ         0.01772   0.00000   0.00000   0.03051   0.00000
  31 3   H  1S          0.00000   0.00000   0.00000   0.00000   0.12581
  32        2S          0.00000   0.00000   0.00000   0.00000   1.81387
  33        3PX         0.00000   0.01142   0.02413   0.00000   0.00000
  34        3PY         0.01142   0.00000   0.00000   0.02413   0.00000
  35        3PZ         0.00000   0.00000   0.00000   0.00000   0.01314
  36 4   H  1S          0.00000   0.00000   0.00000   0.00000  -0.12581
  37        2S          0.00000   0.00000   0.00000   0.00000  -1.81387
  38        3PX         0.00000   0.01142  -0.02413   0.00000   0.00000
  39        3PY         0.01142   0.00000   0.00000  -0.02413   0.00000
  40        3PZ         0.00000   0.00000   0.00000   0.00000   0.01314
                          11        12        13        14        15
                       (SGG)--V  (SGU)--V  (SGG)--V  (PIU)--V  (PIU)--V
     Eigenvalues --     0.15148   0.42685   0.46994   0.53254   0.53254
   1 1   C  1S          0.04903  -0.11348   0.00600   0.00000   0.00000
   2        2S         -0.03312  -0.05975   0.70585   0.00000   0.00000
   3        2PX         0.00000   0.00000   0.00000   0.69588   0.00000
   4        2PY         0.00000   0.00000   0.00000   0.00000   0.69588
   5        2PZ        -0.30654  -0.22077  -0.18583   0.00000   0.00000
   6        3S         -1.30226   6.27480  -0.32006   0.00000   0.00000
   7        3PX         0.00000   0.00000   0.00000  -0.64960   0.00000
   8        3PY         0.00000   0.00000   0.00000   0.00000  -0.64960
   9        3PZ        -0.74885  -4.93620   0.60756   0.00000   0.00000
  10        4XX        -0.00026   0.00725   0.01925   0.00000   0.00000
  11        4YY        -0.00026   0.00725   0.01925   0.00000   0.00000
  12        4ZZ         0.01574  -0.10671   0.12273   0.00000   0.00000
  13        4XY         0.00000   0.00000   0.00000   0.00000   0.00000
  14        4XZ         0.00000   0.00000   0.00000  -0.06044   0.00000
  15        4YZ         0.00000   0.00000   0.00000   0.00000  -0.06044
  16 2   C  1S          0.04903   0.11348   0.00600   0.00000   0.00000
  17        2S         -0.03312   0.05975   0.70585   0.00000   0.00000
  18        2PX         0.00000   0.00000   0.00000   0.69588   0.00000
  19        2PY         0.00000   0.00000   0.00000   0.00000   0.69588
  20        2PZ         0.30654  -0.22077   0.18583   0.00000   0.00000
  21        3S         -1.30226  -6.27480  -0.32006   0.00000   0.00000
  22        3PX         0.00000   0.00000   0.00000  -0.64960   0.00000
  23        3PY         0.00000   0.00000   0.00000   0.00000  -0.64960
  24        3PZ         0.74885  -4.93620  -0.60756   0.00000   0.00000
  25        4XX        -0.00026  -0.00725   0.01925   0.00000   0.00000
  26        4YY        -0.00026  -0.00725   0.01925   0.00000   0.00000
  27        4ZZ         0.01574   0.10671   0.12273   0.00000   0.00000
  28        4XY         0.00000   0.00000   0.00000   0.00000   0.00000
  29        4XZ         0.00000   0.00000   0.00000   0.06044   0.00000
  30        4YZ         0.00000   0.00000   0.00000   0.00000   0.06044
  31 3   H  1S          0.06231  -0.38247   0.38300   0.00000   0.00000
  32        2S          1.61792   2.28239  -0.68406   0.00000   0.00000
  33        3PX         0.00000   0.00000   0.00000   0.00174   0.00000
  34        3PY         0.00000   0.00000   0.00000   0.00000   0.00174
  35        3PZ         0.00815  -0.02627   0.01609   0.00000   0.00000
  36 4   H  1S          0.06231   0.38247   0.38300   0.00000   0.00000
  37        2S          1.61792  -2.28239  -0.68406   0.00000   0.00000
  38        3PX         0.00000   0.00000   0.00000   0.00174   0.00000
  39        3PY         0.00000   0.00000   0.00000   0.00000   0.00174
  40        3PZ        -0.00815  -0.02627  -0.01609   0.00000   0.00000
                          16        17        18        19        20
                       (PIG)--V  (PIG)--V  (SGU)--V  (SGG)--V  (SGG)--V
     Eigenvalues --     0.65483   0.65483   0.74696   0.81361   1.02675
   1 1   C  1S          0.00000   0.00000   0.03002   0.01862  -0.01105
   2        2S          0.00000   0.00000  -0.63439  -0.65723   0.56050
   3        2PX        -0.79854   0.00000   0.00000   0.00000   0.00000
   4        2PY         0.00000  -0.79854   0.00000   0.00000   0.00000
   5        2PZ         0.00000   0.00000  -0.44622  -0.59605  -0.16717
   6        3S          0.00000   0.00000  -4.61046   2.49560   0.49504
   7        3PX         1.20192   0.00000   0.00000   0.00000   0.00000
   8        3PY         0.00000   1.20192   0.00000   0.00000   0.00000
   9        3PZ         0.00000   0.00000   5.93246   2.17189   1.44034
  10        4XX         0.00000   0.00000  -0.01300  -0.06706   0.04567
  11        4YY         0.00000   0.00000  -0.01300  -0.06706   0.04567
  12        4ZZ         0.00000   0.00000  -0.15682   0.02878  -0.07011
  13        4XY         0.00000   0.00000   0.00000   0.00000   0.00000
  14        4XZ        -0.03994   0.00000   0.00000   0.00000   0.00000
  15        4YZ         0.00000  -0.03994   0.00000   0.00000   0.00000
  16 2   C  1S          0.00000   0.00000  -0.03002   0.01862  -0.01105
  17        2S          0.00000   0.00000   0.63439  -0.65723   0.56050
  18        2PX         0.79854   0.00000   0.00000   0.00000   0.00000
  19        2PY         0.00000   0.79854   0.00000   0.00000   0.00000
  20        2PZ         0.00000   0.00000  -0.44622   0.59605   0.16717
  21        3S          0.00000   0.00000   4.61046   2.49560   0.49504
  22        3PX        -1.20192   0.00000   0.00000   0.00000   0.00000
  23        3PY         0.00000  -1.20192   0.00000   0.00000   0.00000
  24        3PZ         0.00000   0.00000   5.93246  -2.17189  -1.44034
  25        4XX         0.00000   0.00000   0.01300  -0.06706   0.04567
  26        4YY         0.00000   0.00000   0.01300  -0.06706   0.04567
  27        4ZZ         0.00000   0.00000   0.15682   0.02878  -0.07011
  28        4XY         0.00000   0.00000   0.00000   0.00000   0.00000
  29        4XZ        -0.03994   0.00000   0.00000   0.00000   0.00000
  30        4YZ         0.00000  -0.03994   0.00000   0.00000   0.00000
  31 3   H  1S          0.00000   0.00000  -0.18558   0.12278  -0.82900
  32        2S          0.00000   0.00000  -2.76502  -2.17554  -0.37461
  33        3PX         0.00713   0.00000   0.00000   0.00000   0.00000
  34        3PY         0.00000   0.00713   0.00000   0.00000   0.00000
  35        3PZ         0.00000   0.00000   0.02521   0.08174  -0.06543
  36 4   H  1S          0.00000   0.00000   0.18558   0.12278  -0.82900
  37        2S          0.00000   0.00000   2.76502  -2.17554  -0.37461
  38        3PX        -0.00713   0.00000   0.00000   0.00000   0.00000
  39        3PY         0.00000  -0.00713   0.00000   0.00000   0.00000
  40        3PZ         0.00000   0.00000   0.02521  -0.08174   0.06543
                          21        22        23        24        25
                       (SGU)--V  (PIU)--V  (PIU)--V  (SGU)--V  (DLTG)--
     Eigenvalues --     1.20777   1.37729   1.37729   1.47905   1.54860
   1 1   C  1S          0.02108   0.00000   0.00000  -0.03982   0.00000
   2        2S         -0.68928   0.00000   0.00000  -1.32577  -0.00000
   3        2PX         0.00000   0.00000   0.17267   0.00000   0.00000
   4        2PY         0.00000   0.17267   0.00000   0.00000   0.00000
   5        2PZ         0.85268   0.00000   0.00000   0.00734  -0.00000
   6        3S          1.34545   0.00000   0.00000  14.88872   0.00000
   7        3PX         0.00000   0.00000  -0.09449   0.00000   0.00000
   8        3PY         0.00000  -0.09449   0.00000   0.00000   0.00000
   9        3PZ        -0.74331   0.00000   0.00000 -10.40919   0.00000
  10        4XX        -0.08469   0.00000   0.00000  -0.11073   0.57696
  11        4YY        -0.08469   0.00000   0.00000  -0.11073  -0.57696
  12        4ZZ         0.03468   0.00000   0.00000   0.42849   0.00000
  13        4XY         0.00000   0.00000   0.00000   0.00000   0.00000
  14        4XZ         0.00000   0.00000   0.49688   0.00000   0.00000
  15        4YZ         0.00000   0.49688   0.00000   0.00000   0.00000
  16 2   C  1S         -0.02108   0.00000   0.00000   0.03982   0.00000
  17        2S          0.68928   0.00000   0.00000   1.32577  -0.00000
  18        2PX         0.00000   0.00000   0.17267   0.00000   0.00000
  19        2PY         0.00000   0.17267   0.00000   0.00000   0.00000
  20        2PZ         0.85268   0.00000   0.00000   0.00734   0.00000
  21        3S         -1.34545   0.00000   0.00000 -14.88872   0.00000
  22        3PX         0.00000   0.00000  -0.09449   0.00000   0.00000
  23        3PY         0.00000  -0.09449   0.00000   0.00000   0.00000
  24        3PZ        -0.74331   0.00000   0.00000 -10.40919  -0.00000
  25        4XX         0.08469   0.00000   0.00000   0.11073   0.57696
  26        4YY         0.08469   0.00000   0.00000   0.11073  -0.57696
  27        4ZZ        -0.03468   0.00000   0.00000  -0.42849   0.00000
  28        4XY         0.00000   0.00000   0.00000   0.00000   0.00000
  29        4XZ         0.00000   0.00000  -0.49688   0.00000   0.00000
  30        4YZ         0.00000  -0.49688   0.00000   0.00000   0.00000
  31 3   H  1S         -0.59956   0.00000   0.00000   0.67165  -0.00000
  32        2S          0.49838   0.00000   0.00000   2.65330  -0.00000
  33        3PX         0.00000   0.00000   0.27209   0.00000   0.00000
  34        3PY         0.00000   0.27209   0.00000   0.00000   0.00000
  35        3PZ        -0.11968   0.00000   0.00000   0.14883  -0.00000
  36 4   H  1S          0.59956   0.00000   0.00000  -0.67165  -0.00000
  37        2S         -0.49838   0.00000   0.00000  -2.65330  -0.00000
  38        3PX         0.00000   0.00000   0.27209   0.00000   0.00000
  39        3PY         0.00000   0.27209   0.00000   0.00000   0.00000
  40        3PZ        -0.11968   0.00000   0.00000   0.14883   0.00000
                          26        27        28        29        30
                       (DLTG)--  (PIG)--V  (PIG)--V  (DLTU)--  (DLTU)--
     Eigenvalues --     1.54860   1.93317   1.93317   1.94484   1.94484
   1 1   C  1S          0.00000   0.00000   0.00000  -0.00000   0.00000
   2        2S          0.00000   0.00000   0.00000  -0.00000   0.00000
   3        2PX         0.00000   0.00000  -0.14755   0.00000   0.00000
   4        2PY         0.00000  -0.14755   0.00000   0.00000   0.00000
   5        2PZ         0.00000   0.00000   0.00000   0.00000   0.00000
   6        3S          0.00000   0.00000   0.00000   0.00000   0.00000
   7        3PX         0.00000   0.00000  -0.44235   0.00000   0.00000
   8        3PY         0.00000  -0.44235   0.00000   0.00000   0.00000
   9        3PZ         0.00000   0.00000   0.00000  -0.00000   0.00000
  10        4XX         0.00000   0.00000   0.00000   0.65523   0.00000
  11        4YY         0.00000   0.00000   0.00000  -0.65523   0.00000
  12        4ZZ         0.00000   0.00000   0.00000   0.00000   0.00000
  13        4XY         0.66621   0.00000   0.00000   0.00000   0.75659
  14        4XZ         0.00000   0.00000   0.45998   0.00000   0.00000
  15        4YZ         0.00000   0.45998   0.00000   0.00000   0.00000
  16 2   C  1S          0.00000   0.00000   0.00000   0.00000   0.00000
  17        2S          0.00000   0.00000   0.00000   0.00000   0.00000
  18        2PX         0.00000   0.00000   0.14755   0.00000   0.00000
  19        2PY         0.00000   0.14755   0.00000   0.00000   0.00000
  20        2PZ         0.00000   0.00000   0.00000   0.00000   0.00000
  21        3S          0.00000   0.00000   0.00000  -0.00000   0.00000
  22        3PX         0.00000   0.00000   0.44235   0.00000   0.00000
  23        3PY         0.00000   0.44235   0.00000   0.00000   0.00000
  24        3PZ         0.00000   0.00000   0.00000  -0.00000   0.00000
  25        4XX         0.00000   0.00000   0.00000  -0.65523   0.00000
  26        4YY         0.00000   0.00000   0.00000   0.65523   0.00000
  27        4ZZ         0.00000   0.00000   0.00000  -0.00000   0.00000
  28        4XY         0.66621   0.00000   0.00000   0.00000  -0.75659
  29        4XZ         0.00000   0.00000   0.45998   0.00000   0.00000
  30        4YZ         0.00000   0.45998   0.00000   0.00000   0.00000
  31 3   H  1S          0.00000   0.00000   0.00000   0.00000   0.00000
  32        2S          0.00000   0.00000   0.00000   0.00000   0.00000
  33        3PX         0.00000   0.00000   0.55805   0.00000   0.00000
  34        3PY         0.00000   0.55805   0.00000   0.00000   0.00000
  35        3PZ         0.00000   0.00000   0.00000   0.00000   0.00000
  36 4   H  1S          0.00000   0.00000   0.00000  -0.00000   0.00000
  37        2S          0.00000   0.00000   0.00000  -0.00000   0.00000
  38        3PX         0.00000   0.00000  -0.55805   0.00000   0.00000
  39        3PY         0.00000  -0.55805   0.00000   0.00000   0.00000
  40        3PZ         0.00000   0.00000   0.00000   0.00000   0.00000
                          31        32        33        34        35
                       (SGG)--V  (PIU)--V  (PIU)--V  (SGU)--V  (PIG)--V
     Eigenvalues --     2.25721   2.38868   2.38868   2.74469   3.04236
   1 1   C  1S         -0.07539   0.00000   0.00000  -0.03254   0.00000
   2        2S         -0.16539   0.00000   0.00000   0.34978   0.00000
   3        2PX         0.00000   0.00000  -0.17376   0.00000  -0.20788
   4        2PY         0.00000  -0.17376   0.00000   0.00000   0.00000
   5        2PZ         0.07488   0.00000   0.00000  -0.94185   0.00000
   6        3S         -0.01803   0.00000   0.00000   2.06117   0.00000
   7        3PX         0.00000   0.00000  -0.05376   0.00000  -0.00216
   8        3PY         0.00000  -0.05376   0.00000   0.00000   0.00000
   9        3PZ        -0.49509   0.00000   0.00000  -1.57419   0.00000
  10        4XX        -0.46696   0.00000   0.00000  -0.34007   0.00000
  11        4YY        -0.46696   0.00000   0.00000  -0.34007   0.00000
  12        4ZZ         0.35568   0.00000   0.00000   0.30746   0.00000
  13        4XY         0.00000   0.00000   0.00000   0.00000   0.00000
  14        4XZ         0.00000   0.00000  -0.40181   0.00000   0.96005
  15        4YZ         0.00000  -0.40181   0.00000   0.00000   0.00000
  16 2   C  1S         -0.07539   0.00000   0.00000   0.03254   0.00000
  17        2S         -0.16539   0.00000   0.00000  -0.34978   0.00000
  18        2PX         0.00000   0.00000  -0.17376   0.00000   0.20788
  19        2PY         0.00000  -0.17376   0.00000   0.00000   0.00000
  20        2PZ        -0.07488   0.00000   0.00000  -0.94185   0.00000
  21        3S         -0.01803   0.00000   0.00000  -2.06117   0.00000
  22        3PX         0.00000   0.00000  -0.05376   0.00000   0.00216
  23        3PY         0.00000  -0.05376   0.00000   0.00000   0.00000
  24        3PZ         0.49509   0.00000   0.00000  -1.57419   0.00000
  25        4XX        -0.46696   0.00000   0.00000   0.34007   0.00000
  26        4YY        -0.46696   0.00000   0.00000   0.34007   0.00000
  27        4ZZ         0.35568   0.00000   0.00000  -0.30746   0.00000
  28        4XY         0.00000   0.00000   0.00000   0.00000   0.00000
  29        4XZ         0.00000   0.00000   0.40181   0.00000   0.96005
  30        4YZ         0.00000   0.40181   0.00000   0.00000   0.00000
  31 3   H  1S         -0.22082   0.00000   0.00000   0.11610   0.00000
  32        2S          0.51701   0.00000   0.00000   0.74568   0.00000
  33        3PX         0.00000   0.00000   0.70623   0.00000  -0.55637
  34        3PY         0.00000   0.70623   0.00000   0.00000   0.00000
  35        3PZ        -0.39948   0.00000   0.00000  -0.66286   0.00000
  36 4   H  1S         -0.22082   0.00000   0.00000  -0.11610   0.00000
  37        2S          0.51701   0.00000   0.00000  -0.74568   0.00000
  38        3PX         0.00000   0.00000   0.70623   0.00000   0.55637
  39        3PY         0.00000   0.70623   0.00000   0.00000   0.00000
  40        3PZ         0.39948   0.00000   0.00000  -0.66286   0.00000
                          36        37        38        39        40
                       (PIG)--V  (SGG)--V  (SGU)--V  (SGG)--V  (SGU)--V
     Eigenvalues --     3.04236   3.36311   3.83803   4.58750   5.36412
   1 1   C  1S          0.00000  -0.18824  -0.24665  -0.23786   0.31790
   2        2S          0.00000   1.16852   1.85907   2.16104  -0.45548
   3        2PX         0.00000   0.00000   0.00000   0.00000   0.00000
   4        2PY        -0.20788   0.00000   0.00000   0.00000   0.00000
   5        2PZ         0.00000   0.55098  -0.08886  -0.61902  -1.01093
   6        3S          0.00000   0.65404   3.63744   0.22778  -2.01720
   7        3PX         0.00000   0.00000   0.00000   0.00000   0.00000
   8        3PY        -0.00216   0.00000   0.00000   0.00000   0.00000
   9        3PZ         0.00000   0.11381  -1.69397   0.03236   1.26517
  10        4XX         0.00000  -0.83151  -1.25873  -0.90729   0.43696
  11        4YY         0.00000  -0.83151  -1.25873  -0.90729   0.43696
  12        4ZZ         0.00000   0.04427   0.06082  -1.78677   3.23484
  13        4XY         0.00000   0.00000   0.00000   0.00000   0.00000
  14        4XZ         0.00000   0.00000   0.00000   0.00000   0.00000
  15        4YZ         0.96005   0.00000   0.00000   0.00000   0.00000
  16 2   C  1S          0.00000  -0.18824   0.24665  -0.23786  -0.31790
  17        2S          0.00000   1.16852  -1.85907   2.16104   0.45548
  18        2PX         0.00000   0.00000   0.00000   0.00000   0.00000
  19        2PY         0.20788   0.00000   0.00000   0.00000   0.00000
  20        2PZ         0.00000  -0.55098  -0.08886   0.61902  -1.01093
  21        3S          0.00000   0.65404  -3.63744   0.22778   2.01720
  22        3PX         0.00000   0.00000   0.00000   0.00000   0.00000
  23        3PY         0.00216   0.00000   0.00000   0.00000   0.00000
  24        3PZ         0.00000  -0.11381  -1.69397  -0.03236   1.26517
  25        4XX         0.00000  -0.83151   1.25873  -0.90729  -0.43696
  26        4YY         0.00000  -0.83151   1.25873  -0.90729  -0.43696
  27        4ZZ         0.00000   0.04427  -0.06082  -1.78677  -3.23484
  28        4XY         0.00000   0.00000   0.00000   0.00000   0.00000
  29        4XZ         0.00000   0.00000   0.00000   0.00000   0.00000
  30        4YZ         0.96005   0.00000   0.00000   0.00000   0.00000
  31 3   H  1S          0.00000  -0.46172  -0.36500   0.63979  -1.11503
  32        2S          0.00000  -0.39152   0.11513  -0.03323  -0.31485
  33        3PX         0.00000   0.00000   0.00000   0.00000   0.00000
  34        3PY        -0.55637   0.00000   0.00000   0.00000   0.00000
  35        3PZ         0.00000   0.79861   0.57744  -0.63619   0.98968
  36 4   H  1S          0.00000  -0.46172   0.36500   0.63979   1.11503
  37        2S          0.00000  -0.39152  -0.11513  -0.03323   0.31485
  38        3PX         0.00000   0.00000   0.00000   0.00000   0.00000
  39        3PY         0.55637   0.00000   0.00000   0.00000   0.00000
  40        3PZ         0.00000  -0.79861   0.57744   0.63619   0.98968
     Density Matrix:
                           1         2         3         4         5
   1 1   C  1S          2.05787
   2        2S         -0.07023   0.32737
   3        2PX         0.00000  -0.00000   0.34965
   4        2PY         0.00000  -0.00000   0.00000   0.34965
   5        2PZ         0.00748  -0.00012   0.00000   0.00000   0.43187
   6        3S         -0.16141   0.25532   0.00000   0.00000   0.00918
   7        3PX        -0.00000   0.00000   0.21129   0.00000  -0.00000
   8        3PY        -0.00000   0.00000   0.00000   0.21129  -0.00000
   9        3PZ        -0.01288   0.04456  -0.00000  -0.00000   0.06433
  10        4XX        -0.01207  -0.01683  -0.00000   0.00000   0.00153
  11        4YY        -0.01207  -0.01683   0.00000  -0.00000   0.00153
  12        4ZZ        -0.01940   0.00798   0.00000   0.00000   0.00443
  13        4XY         0.00000   0.00000  -0.00000  -0.00000   0.00000
  14        4XZ        -0.00000   0.00000  -0.01482   0.00000   0.00000
  15        4YZ        -0.00000   0.00000   0.00000  -0.01482   0.00000
  16 2   C  1S          0.03315  -0.06723   0.00000   0.00000   0.10357
  17        2S         -0.06723   0.11611  -0.00000  -0.00000  -0.18768
  18        2PX        -0.00000   0.00000   0.34965   0.00000  -0.00000
  19        2PY        -0.00000   0.00000   0.00000   0.34965  -0.00000
  20        2PZ        -0.10357   0.18768  -0.00000  -0.00000  -0.26102
  21        3S         -0.02459   0.07599  -0.00000  -0.00000  -0.15624
  22        3PX         0.00000   0.00000   0.21129   0.00000  -0.00000
  23        3PY         0.00000   0.00000   0.00000   0.21129  -0.00000
  24        3PZ         0.00177   0.01610  -0.00000  -0.00000  -0.01000
  25        4XX         0.00285  -0.00613   0.00000   0.00000   0.01034
  26        4YY         0.00285  -0.00613   0.00000   0.00000   0.01034
  27        4ZZ        -0.00304   0.00406  -0.00000  -0.00000   0.00020
  28        4XY         0.00000   0.00000   0.00000   0.00000   0.00000
  29        4XZ        -0.00000   0.00000   0.01482   0.00000  -0.00000
  30        4YZ        -0.00000   0.00000   0.00000   0.01482  -0.00000
  31 3   H  1S         -0.07955   0.15491   0.00000   0.00000   0.24344
  32        2S         -0.02531   0.05692   0.00000   0.00000   0.20603
  33        3PX         0.00000  -0.00000   0.00955   0.00000  -0.00000
  34        3PY         0.00000  -0.00000   0.00000   0.00955  -0.00000
  35        3PZ         0.00749  -0.01133  -0.00000  -0.00000  -0.00947
  36 4   H  1S          0.02416  -0.04544   0.00000   0.00000   0.06091
  37        2S          0.03277  -0.05635   0.00000   0.00000   0.10286
  38        3PX         0.00000  -0.00000   0.00955   0.00000  -0.00000
  39        3PY         0.00000  -0.00000   0.00000   0.00955  -0.00000
  40        3PZ         0.00001  -0.00010  -0.00000  -0.00000  -0.00100
                           6         7         8         9        10
   6        3S          0.20603
   7        3PX         0.00000   0.12768
   8        3PY         0.00000   0.00000   0.12768
   9        3PZ         0.03651  -0.00000  -0.00000   0.01577
  10        4XX        -0.01230  -0.00000  -0.00000  -0.00203   0.00099
  11        4YY        -0.01230  -0.00000  -0.00000  -0.00203   0.00099
  12        4ZZ         0.00704   0.00000   0.00000   0.00174  -0.00025
  13        4XY         0.00000  -0.00000  -0.00000   0.00000   0.00000
  14        4XZ         0.00000  -0.00896   0.00000   0.00000  -0.00000
  15        4YZ         0.00000   0.00000  -0.00896   0.00000  -0.00000
  16 2   C  1S         -0.02459  -0.00000  -0.00000  -0.00177   0.00285
  17        2S          0.07599  -0.00000  -0.00000  -0.01610  -0.00613
  18        2PX         0.00000   0.21129   0.00000  -0.00000  -0.00000
  19        2PY         0.00000   0.00000   0.21129  -0.00000  -0.00000
  20        2PZ         0.15624  -0.00000  -0.00000  -0.01000  -0.01034
  21        3S          0.04489  -0.00000  -0.00000  -0.01566  -0.00421
  22        3PX         0.00000   0.12768   0.00000  -0.00000  -0.00000
  23        3PY         0.00000   0.00000   0.12768  -0.00000  -0.00000
  24        3PZ         0.01566  -0.00000  -0.00000   0.00169  -0.00097
  25        4XX        -0.00421   0.00000   0.00000   0.00097   0.00034
  26        4YY        -0.00421   0.00000   0.00000   0.00097   0.00034
  27        4ZZ         0.00264  -0.00000  -0.00000   0.00053  -0.00018
  28        4XY         0.00000   0.00000   0.00000   0.00000   0.00000
  29        4XZ         0.00000   0.00896   0.00000  -0.00000  -0.00000
  30        4YZ         0.00000   0.00000   0.00896  -0.00000  -0.00000
  31 3   H  1S          0.12838   0.00000   0.00000   0.05740  -0.00671
  32        2S          0.04884   0.00000   0.00000   0.03825  -0.00206
  33        3PX        -0.00000   0.00577   0.00000  -0.00000  -0.00000
  34        3PY        -0.00000   0.00000   0.00577  -0.00000   0.00000
  35        3PZ        -0.00932  -0.00000  -0.00000  -0.00297   0.00051
  36 4   H  1S         -0.04838  -0.00000  -0.00000  -0.00064   0.00269
  37        2S         -0.05105   0.00000   0.00000   0.00545   0.00326
  38        3PX        -0.00000   0.00577   0.00000  -0.00000  -0.00000
  39        3PY        -0.00000   0.00000   0.00577  -0.00000   0.00000
  40        3PZ        -0.00087  -0.00000  -0.00000  -0.00035   0.00002
                          11        12        13        14        15
  11        4YY         0.00099
  12        4ZZ        -0.00025   0.00044
  13        4XY         0.00000   0.00000   0.00000
  14        4XZ        -0.00000  -0.00000   0.00000   0.00063
  15        4YZ        -0.00000  -0.00000   0.00000   0.00000   0.00063
  16 2   C  1S          0.00285  -0.00304   0.00000  -0.00000  -0.00000
  17        2S         -0.00613   0.00406   0.00000   0.00000   0.00000
  18        2PX        -0.00000   0.00000  -0.00000  -0.01482   0.00000
  19        2PY        -0.00000   0.00000  -0.00000   0.00000  -0.01482
  20        2PZ        -0.01034  -0.00020   0.00000   0.00000   0.00000
  21        3S         -0.00421   0.00264   0.00000   0.00000   0.00000
  22        3PX        -0.00000   0.00000  -0.00000  -0.00896   0.00000
  23        3PY        -0.00000   0.00000  -0.00000   0.00000  -0.00896
  24        3PZ        -0.00097  -0.00053   0.00000   0.00000   0.00000
  25        4XX         0.00034  -0.00018   0.00000  -0.00000  -0.00000
  26        4YY         0.00034  -0.00018   0.00000  -0.00000  -0.00000
  27        4ZZ        -0.00018   0.00023   0.00000   0.00000   0.00000
  28        4XY         0.00000   0.00000  -0.00000  -0.00000  -0.00000
  29        4XZ        -0.00000   0.00000  -0.00000  -0.00063   0.00000
  30        4YZ        -0.00000   0.00000  -0.00000   0.00000  -0.00063
  31 3   H  1S         -0.00671   0.00678   0.00000   0.00000   0.00000
  32        2S         -0.00206   0.00383   0.00000   0.00000   0.00000
  33        3PX         0.00000   0.00000  -0.00000  -0.00040   0.00000
  34        3PY        -0.00000   0.00000  -0.00000   0.00000  -0.00040
  35        3PZ         0.00051  -0.00042   0.00000  -0.00000  -0.00000
  36 4   H  1S          0.00269   0.00225   0.00000  -0.00000  -0.00000
  37        2S          0.00326   0.00127   0.00000  -0.00000  -0.00000
  38        3PX         0.00000   0.00000  -0.00000  -0.00040   0.00000
  39        3PY        -0.00000   0.00000  -0.00000   0.00000  -0.00040
  40        3PZ         0.00002   0.00015   0.00000   0.00000   0.00000
                          16        17        18        19        20
  16 2   C  1S          2.05787
  17        2S         -0.07023   0.32737
  18        2PX        -0.00000   0.00000   0.34965
  19        2PY        -0.00000   0.00000   0.00000   0.34965
  20        2PZ        -0.00748   0.00012   0.00000   0.00000   0.43187
  21        3S         -0.16141   0.25532  -0.00000  -0.00000  -0.00918
  22        3PX         0.00000  -0.00000   0.21129   0.00000  -0.00000
  23        3PY         0.00000  -0.00000   0.00000   0.21129  -0.00000
  24        3PZ         0.01288  -0.04456  -0.00000  -0.00000   0.06433
  25        4XX        -0.01207  -0.01683   0.00000  -0.00000  -0.00153
  26        4YY        -0.01207  -0.01683  -0.00000   0.00000  -0.00153
  27        4ZZ        -0.01940   0.00798  -0.00000  -0.00000  -0.00443
  28        4XY         0.00000   0.00000   0.00000   0.00000   0.00000
  29        4XZ        -0.00000   0.00000   0.01482   0.00000  -0.00000
  30        4YZ        -0.00000   0.00000   0.00000   0.01482  -0.00000
  31 3   H  1S          0.02416  -0.04544  -0.00000  -0.00000  -0.06091
  32        2S          0.03277  -0.05635  -0.00000  -0.00000  -0.10286
  33        3PX        -0.00000   0.00000   0.00955   0.00000  -0.00000
  34        3PY        -0.00000   0.00000   0.00000   0.00955  -0.00000
  35        3PZ        -0.00001   0.00010  -0.00000  -0.00000  -0.00100
  36 4   H  1S         -0.07955   0.15491  -0.00000  -0.00000  -0.24344
  37        2S         -0.02531   0.05692  -0.00000  -0.00000  -0.20603
  38        3PX        -0.00000   0.00000   0.00955   0.00000  -0.00000
  39        3PY        -0.00000   0.00000   0.00000   0.00955  -0.00000
  40        3PZ        -0.00749   0.01133  -0.00000  -0.00000  -0.00947
                          21        22        23        24        25
  21        3S          0.20603
  22        3PX        -0.00000   0.12768
  23        3PY        -0.00000   0.00000   0.12768
  24        3PZ        -0.03651  -0.00000  -0.00000   0.01577
  25        4XX        -0.01230   0.00000   0.00000   0.00203   0.00099
  26        4YY        -0.01230   0.00000   0.00000   0.00203   0.00099
  27        4ZZ         0.00704  -0.00000  -0.00000  -0.00174  -0.00025
  28        4XY         0.00000   0.00000   0.00000   0.00000   0.00000
  29        4XZ         0.00000   0.00896   0.00000  -0.00000  -0.00000
  30        4YZ         0.00000   0.00000   0.00896  -0.00000  -0.00000
  31 3   H  1S         -0.04838   0.00000   0.00000   0.00064   0.00269
  32        2S         -0.05105  -0.00000  -0.00000  -0.00545   0.00326
  33        3PX         0.00000   0.00577   0.00000  -0.00000   0.00000
  34        3PY         0.00000   0.00000   0.00577  -0.00000  -0.00000
  35        3PZ         0.00087  -0.00000  -0.00000  -0.00035  -0.00002
  36 4   H  1S          0.12838  -0.00000  -0.00000  -0.05740  -0.00671
  37        2S          0.04884  -0.00000  -0.00000  -0.03825  -0.00206
  38        3PX         0.00000   0.00577   0.00000  -0.00000   0.00000
  39        3PY         0.00000   0.00000   0.00577  -0.00000  -0.00000
  40        3PZ         0.00932  -0.00000  -0.00000  -0.00297  -0.00051
                          26        27        28        29        30
  26        4YY         0.00099
  27        4ZZ        -0.00025   0.00044
  28        4XY         0.00000   0.00000   0.00000
  29        4XZ        -0.00000  -0.00000   0.00000   0.00063
  30        4YZ        -0.00000  -0.00000   0.00000   0.00000   0.00063
  31 3   H  1S          0.00269   0.00225   0.00000  -0.00000  -0.00000
  32        2S          0.00326   0.00127   0.00000  -0.00000  -0.00000
  33        3PX        -0.00000  -0.00000   0.00000   0.00040   0.00000
  34        3PY         0.00000  -0.00000   0.00000   0.00000   0.00040
  35        3PZ        -0.00002  -0.00015   0.00000  -0.00000  -0.00000
  36 4   H  1S         -0.00671   0.00678   0.00000   0.00000   0.00000
  37        2S         -0.00206   0.00383   0.00000   0.00000   0.00000
  38        3PX        -0.00000  -0.00000   0.00000   0.00040   0.00000
  39        3PY         0.00000  -0.00000   0.00000   0.00000   0.00040
  40        3PZ        -0.00051   0.00042   0.00000   0.00000   0.00000
                          31        32        33        34        35
  31 3   H  1S          0.21193
  32        2S          0.14380   0.10914
  33        3PX        -0.00000  -0.00000   0.00026
  34        3PY        -0.00000  -0.00000   0.00000   0.00026
  35        3PZ        -0.01083  -0.00653   0.00000   0.00000   0.00061
  36 4   H  1S          0.01691   0.03357   0.00000   0.00000   0.00037
  37        2S          0.03357   0.04684  -0.00000  -0.00000  -0.00020
  38        3PX        -0.00000   0.00000   0.00026   0.00000  -0.00000
  39        3PY        -0.00000   0.00000   0.00000   0.00026  -0.00000
  40        3PZ        -0.00037   0.00020  -0.00000  -0.00000   0.00003
                          36        37        38        39        40
  36 4   H  1S          0.21193
  37        2S          0.14380   0.10914
  38        3PX         0.00000   0.00000   0.00026
  39        3PY         0.00000   0.00000   0.00000   0.00026
  40        3PZ         0.01083   0.00653   0.00000   0.00000   0.00061
    Full Mulliken population analysis:
                           1         2         3         4         5
   1 1   C  1S          2.05787
   2        2S         -0.01538   0.32737
   3        2PX         0.00000   0.00000   0.34965
   4        2PY         0.00000   0.00000   0.00000   0.34965
   5        2PZ         0.00000   0.00000  -0.00000   0.00000   0.43187
   6        3S         -0.02974   0.20739   0.00000   0.00000   0.00000
   7        3PX         0.00000   0.00000   0.12038   0.00000   0.00000
   8        3PY         0.00000   0.00000   0.00000   0.12038   0.00000
   9        3PZ         0.00000   0.00000   0.00000   0.00000   0.03665
  10        4XX        -0.00095  -0.01196   0.00000   0.00000   0.00000
  11        4YY        -0.00095  -0.01196   0.00000   0.00000   0.00000
  12        4ZZ        -0.00153   0.00567   0.00000   0.00000   0.00000
  13        4XY         0.00000   0.00000   0.00000   0.00000   0.00000
  14        4XZ         0.00000   0.00000   0.00000   0.00000   0.00000
  15        4YZ         0.00000   0.00000   0.00000   0.00000   0.00000
  16 2   C  1S          0.00000  -0.00245  -0.00000  -0.00000  -0.00750
  17        2S         -0.00245   0.03276   0.00000   0.00000   0.06755
  18        2PX         0.00000   0.00000   0.06000   0.00000   0.00000
  19        2PY        -0.00000   0.00000   0.00000   0.06000   0.00000
  20        2PZ        -0.00750   0.06755   0.00000   0.00000   0.09710
  21        3S         -0.00195   0.03217   0.00000   0.00000   0.04201
  22        3PX         0.00000   0.00000   0.06085   0.00000   0.00000
  23        3PY         0.00000   0.00000   0.00000   0.06085   0.00000
  24        3PZ         0.00025   0.00953   0.00000   0.00000   0.00104
  25        4XX         0.00001  -0.00086   0.00000  -0.00000  -0.00203
  26        4YY         0.00001  -0.00086   0.00000   0.00000  -0.00203
  27        4ZZ        -0.00031   0.00171   0.00000   0.00000  -0.00009
  28        4XY         0.00000   0.00000   0.00000   0.00000   0.00000
  29        4XZ         0.00000   0.00000   0.00386   0.00000   0.00000
  30        4YZ        -0.00000   0.00000   0.00000   0.00386   0.00000
  31 3   H  1S         -0.00297   0.04538   0.00000   0.00000   0.09455
  32        2S         -0.00242   0.02787   0.00000   0.00000   0.05483
  33        3PX        -0.00000   0.00000   0.00159   0.00000   0.00000
  34        3PY        -0.00000   0.00000   0.00000   0.00159   0.00000
  35        3PZ        -0.00041   0.00348   0.00000   0.00000   0.00351
  36 4   H  1S          0.00000  -0.00020  -0.00000  -0.00000  -0.00059
  37        2S          0.00034  -0.00480  -0.00000  -0.00000  -0.00955
  38        3PX         0.00000   0.00000   0.00001   0.00000   0.00000
  39        3PY         0.00000  -0.00000   0.00000   0.00001   0.00000
  40        3PZ         0.00000  -0.00000   0.00000   0.00000   0.00001
                           6         7         8         9        10
   6        3S          0.20603
   7        3PX         0.00000   0.12768
   8        3PY         0.00000   0.00000   0.12768
   9        3PZ         0.00000   0.00000   0.00000   0.01577
  10        4XX        -0.00775   0.00000   0.00000   0.00000   0.00099
  11        4YY        -0.00775   0.00000   0.00000   0.00000   0.00033
  12        4ZZ         0.00444   0.00000   0.00000   0.00000  -0.00008
  13        4XY         0.00000   0.00000   0.00000   0.00000   0.00000
  14        4XZ         0.00000   0.00000   0.00000   0.00000   0.00000
  15        4YZ         0.00000   0.00000   0.00000   0.00000   0.00000
  16 2   C  1S         -0.00195   0.00000   0.00000   0.00025   0.00001
  17        2S          0.03217   0.00000   0.00000   0.00953  -0.00086
  18        2PX         0.00000   0.06085   0.00000   0.00000   0.00000
  19        2PY         0.00000   0.00000   0.06085   0.00000  -0.00000
  20        2PZ         0.04201   0.00000   0.00000   0.00104  -0.00203
  21        3S          0.02903   0.00000   0.00000   0.00946  -0.00129
  22        3PX         0.00000   0.08256   0.00000   0.00000  -0.00000
  23        3PY         0.00000   0.00000   0.08256   0.00000  -0.00000
  24        3PZ         0.00946   0.00000   0.00000   0.00014  -0.00046
  25        4XX        -0.00129   0.00000  -0.00000  -0.00046   0.00004
  26        4YY        -0.00129   0.00000  -0.00000  -0.00046   0.00001
  27        4ZZ         0.00105   0.00000   0.00000  -0.00022  -0.00004
  28        4XY         0.00000   0.00000   0.00000   0.00000   0.00000
  29        4XZ         0.00000   0.00155   0.00000   0.00000   0.00000
  30        4YZ         0.00000   0.00000   0.00155   0.00000  -0.00000
  31 3   H  1S          0.04995   0.00000   0.00000   0.02967  -0.00086
  32        2S          0.03507   0.00000   0.00000   0.02209  -0.00074
  33        3PX         0.00000   0.00122   0.00000   0.00000  -0.00000
  34        3PY         0.00000   0.00000   0.00122   0.00000  -0.00000
  35        3PZ         0.00162   0.00000   0.00000   0.00011  -0.00007
  36 4   H  1S         -0.00271   0.00000   0.00000   0.00010   0.00000
  37        2S         -0.01130  -0.00000  -0.00000  -0.00207   0.00017
  38        3PX         0.00000   0.00015   0.00000   0.00000   0.00000
  39        3PY        -0.00000   0.00000   0.00015   0.00000   0.00000
  40        3PZ        -0.00004   0.00000   0.00000   0.00004   0.00000
                          11        12        13        14        15
  11        4YY         0.00099
  12        4ZZ        -0.00008   0.00044
  13        4XY         0.00000   0.00000   0.00000
  14        4XZ        -0.00000   0.00000   0.00000   0.00063
  15        4YZ         0.00000   0.00000  -0.00000   0.00000   0.00063
  16 2   C  1S          0.00001  -0.00031   0.00000  -0.00000  -0.00000
  17        2S         -0.00086   0.00171   0.00000   0.00000   0.00000
  18        2PX        -0.00000   0.00000   0.00000   0.00386   0.00000
  19        2PY         0.00000   0.00000   0.00000   0.00000   0.00386
  20        2PZ        -0.00203  -0.00009   0.00000   0.00000   0.00000
  21        3S         -0.00129   0.00105   0.00000   0.00000   0.00000
  22        3PX        -0.00000   0.00000   0.00000   0.00155   0.00000
  23        3PY        -0.00000   0.00000   0.00000   0.00000   0.00155
  24        3PZ        -0.00046  -0.00022   0.00000   0.00000   0.00000
  25        4XX         0.00001  -0.00004   0.00000   0.00000  -0.00000
  26        4YY         0.00004  -0.00004   0.00000  -0.00000   0.00000
  27        4ZZ        -0.00004   0.00012   0.00000   0.00000   0.00000
  28        4XY         0.00000   0.00000  -0.00000   0.00000   0.00000
  29        4XZ        -0.00000   0.00000   0.00000   0.00025   0.00000
  30        4YZ         0.00000   0.00000   0.00000   0.00000   0.00025
  31 3   H  1S         -0.00086   0.00325   0.00000   0.00000   0.00000
  32        2S         -0.00074   0.00169   0.00000   0.00000   0.00000
  33        3PX        -0.00000  -0.00000  -0.00000  -0.00013   0.00000
  34        3PY        -0.00000  -0.00000  -0.00000   0.00000  -0.00013
  35        3PZ        -0.00007   0.00018   0.00000   0.00000   0.00000
  36 4   H  1S          0.00000   0.00002   0.00000  -0.00000  -0.00000
  37        2S          0.00017   0.00014   0.00000  -0.00000  -0.00000
  38        3PX         0.00000   0.00000   0.00000   0.00000   0.00000
  39        3PY         0.00000   0.00000   0.00000   0.00000   0.00000
  40        3PZ         0.00000   0.00000   0.00000   0.00000   0.00000
                          16        17        18        19        20
  16 2   C  1S          2.05787
  17        2S         -0.01538   0.32737
  18        2PX         0.00000   0.00000   0.34965
  19        2PY         0.00000   0.00000   0.00000   0.34965
  20        2PZ         0.00000   0.00000   0.00000   0.00000   0.43187
  21        3S         -0.02974   0.20739   0.00000   0.00000   0.00000
  22        3PX         0.00000   0.00000   0.12038   0.00000   0.00000
  23        3PY         0.00000   0.00000   0.00000   0.12038   0.00000
  24        3PZ         0.00000   0.00000   0.00000   0.00000   0.03665
  25        4XX        -0.00095  -0.01196   0.00000   0.00000   0.00000
  26        4YY        -0.00095  -0.01196   0.00000   0.00000   0.00000
  27        4ZZ        -0.00153   0.00567   0.00000   0.00000   0.00000
  28        4XY         0.00000   0.00000   0.00000   0.00000   0.00000
  29        4XZ         0.00000   0.00000   0.00000   0.00000   0.00000
  30        4YZ         0.00000   0.00000   0.00000   0.00000   0.00000
  31 3   H  1S          0.00000  -0.00020   0.00000  -0.00000  -0.00059
  32        2S          0.00034  -0.00480   0.00000  -0.00000  -0.00955
  33        3PX         0.00000  -0.00000   0.00001   0.00000   0.00000
  34        3PY         0.00000  -0.00000   0.00000   0.00001   0.00000
  35        3PZ         0.00000  -0.00000   0.00000   0.00000   0.00001
  36 4   H  1S         -0.00297   0.04538   0.00000   0.00000   0.09455
  37        2S         -0.00242   0.02787   0.00000   0.00000   0.05483
  38        3PX         0.00000   0.00000   0.00159   0.00000   0.00000
  39        3PY        -0.00000   0.00000   0.00000   0.00159   0.00000
  40        3PZ        -0.00041   0.00348   0.00000   0.00000   0.00351
                          21        22        23        24        25
  21        3S          0.20603
  22        3PX         0.00000   0.12768
  23        3PY         0.00000   0.00000   0.12768
  24        3PZ         0.00000   0.00000   0.00000   0.01577
  25        4XX        -0.00775   0.00000   0.00000   0.00000   0.00099
  26        4YY        -0.00775   0.00000   0.00000   0.00000   0.00033
  27        4ZZ         0.00444   0.00000   0.00000   0.00000  -0.00008
  28        4XY         0.00000   0.00000   0.00000   0.00000   0.00000
  29        4XZ         0.00000   0.00000   0.00000   0.00000   0.00000
  30        4YZ         0.00000   0.00000   0.00000   0.00000   0.00000
  31 3   H  1S         -0.00271   0.00000   0.00000   0.00010   0.00000
  32        2S         -0.01130   0.00000  -0.00000  -0.00207   0.00017
  33        3PX        -0.00000   0.00015   0.00000   0.00000   0.00000
  34        3PY        -0.00000   0.00000   0.00015   0.00000   0.00000
  35        3PZ        -0.00004   0.00000   0.00000   0.00004   0.00000
  36 4   H  1S          0.04995   0.00000   0.00000   0.02967  -0.00086
  37        2S          0.03507   0.00000   0.00000   0.02209  -0.00074
  38        3PX         0.00000   0.00122   0.00000   0.00000   0.00000
  39        3PY         0.00000   0.00000   0.00122   0.00000  -0.00000
  40        3PZ         0.00162   0.00000   0.00000   0.00011  -0.00007
                          26        27        28        29        30
  26        4YY         0.00099
  27        4ZZ        -0.00008   0.00044
  28        4XY         0.00000   0.00000   0.00000
  29        4XZ         0.00000   0.00000   0.00000   0.00063
  30        4YZ         0.00000   0.00000   0.00000   0.00000   0.00063
  31 3   H  1S          0.00000   0.00002   0.00000   0.00000  -0.00000
  32        2S          0.00017   0.00014   0.00000   0.00000  -0.00000
  33        3PX         0.00000   0.00000   0.00000   0.00000   0.00000
  34        3PY         0.00000   0.00000   0.00000   0.00000   0.00000
  35        3PZ         0.00000   0.00000   0.00000   0.00000   0.00000
  36 4   H  1S         -0.00086   0.00325   0.00000   0.00000   0.00000
  37        2S         -0.00074   0.00169   0.00000   0.00000   0.00000
  38        3PX         0.00000   0.00000  -0.00000  -0.00013   0.00000
  39        3PY        -0.00000  -0.00000   0.00000   0.00000  -0.00013
  40        3PZ        -0.00007   0.00018   0.00000   0.00000   0.00000
                          31        32        33        34        35
  31 3   H  1S          0.21193
  32        2S          0.09466   0.10914
  33        3PX         0.00000   0.00000   0.00026
  34        3PY         0.00000   0.00000   0.00000   0.00026
  35        3PZ         0.00000   0.00000   0.00000   0.00000   0.00061
  36 4   H  1S          0.00000   0.00013  -0.00000  -0.00000  -0.00000
  37        2S          0.00013   0.00195   0.00000   0.00000   0.00000
  38        3PX         0.00000   0.00000   0.00000   0.00000   0.00000
  39        3PY        -0.00000   0.00000   0.00000   0.00000   0.00000
  40        3PZ        -0.00000   0.00000   0.00000   0.00000  -0.00000
                          36        37        38        39        40
  36 4   H  1S          0.21193
  37        2S          0.09466   0.10914
  38        3PX         0.00000   0.00000   0.00026
  39        3PY         0.00000   0.00000   0.00000   0.00026
  40        3PZ         0.00000   0.00000   0.00000   0.00000   0.00061
     Gross orbital populations:
                           1
   1 1   C  1S          1.99190
   2        2S          0.71240
   3        2PX         0.59634
   4        2PY         0.59634
   5        2PZ         0.80734
   6        3S          0.55439
   7        3PX         0.39439
   8        3PY         0.39439
   9        3PZ         0.12165
  10        4XX        -0.02552
  11        4YY        -0.02552
  12        4ZZ         0.01629
  13        4XY         0.00000
  14        4XZ         0.00616
  15        4YZ         0.00616
  16 2   C  1S          1.99190
  17        2S          0.71240
  18        2PX         0.59634
  19        2PY         0.59634
  20        2PZ         0.80734
  21        3S          0.55439
  22        3PX         0.39439
  23        3PY         0.39439
  24        3PZ         0.12165
  25        4XX        -0.02552
  26        4YY        -0.02552
  27        4ZZ         0.01629
  28        4XY         0.00000
  29        4XZ         0.00616
  30        4YZ         0.00616
  31 3   H  1S          0.52147
  32        2S          0.31662
  33        3PX         0.00311
  34        3PY         0.00311
  35        3PZ         0.00898
  36 4   H  1S          0.52147
  37        2S          0.31662
  38        3PX         0.00311
  39        3PY         0.00311
  40        3PZ         0.00898
          Condensed to atoms (all electrons):
              1          2          3          4
     1  C    4.811432   0.995753   0.369478  -0.029939
     2  C    0.995753   4.811432  -0.029939   0.369478
     3  H    0.369478  -0.029939   0.511531   0.002206
     4  H   -0.029939   0.369478   0.002206   0.511531
 Mulliken atomic charges:
              1
     1  C   -0.146725
     2  C   -0.146725
     3  H    0.146725
     4  H    0.146725
 Sum of Mulliken atomic charges =  -0.00000
 Mulliken charges with hydrogens summed into heavy atoms:
              1
     1  C   -0.000000
     2  C   -0.000000
 Sum of Mulliken charges with hydrogens summed into heavy atoms =  -0.00000
 Electronic spatial extent (au):  <R**2>=             59.6161
 Charge=             -0.0000 electrons
 Dipole moment (field-independent basis, Debye):
    X=              0.0000    Y=              0.0000    Z=              0.0000  Tot=              0.0000
 Quadrupole moment (field-independent basis, Debye-Ang):
   XX=            -12.9795   YY=            -12.9795   ZZ=             -6.8536
   XY=              0.0000   XZ=             -0.0000   YZ=              0.0000
 Traceless Quadrupole moment (field-independent basis, Debye-Ang):
   XX=             -2.0420   YY=             -2.0420   ZZ=              4.0840
   XY=              0.0000   XZ=             -0.0000   YZ=              0.0000
 Octapole moment (field-independent basis, Debye-Ang**2):
  XXX=             -0.0000  YYY=              0.0000  ZZZ=              0.0000  XYY=             -0.0000
  XXY=             -0.0000  XXZ=              0.0000  XZZ=              0.0000  YZZ=              0.0000
  YYZ=              0.0000  XYZ=              0.0000
 Hexadecapole moment (field-independent basis, Debye-Ang**3):
 XXXX=            -13.2633 YYYY=            -13.2633 ZZZZ=            -38.0306 XXXY=              0.0000
 XXXZ=              0.0000 YYYX=              0.0000 YYYZ=              0.0000 ZZZX=              0.0000
 ZZZY=              0.0000 XXYY=             -4.4211 XXZZ=            -11.5968 YYZZ=            -11.5968
 XXYZ=              0.0000 YYXZ=              0.0000 ZZXY=              0.0000
 N-N= 2.479172477057D+01 E-N=-2.286250041101D+02  KE= 7.657716413173D+01
 Symmetry AG   KE= 3.784849750916D+01
 Symmetry B1G  KE= 9.669652715562D-35
 Symmetry B2G  KE= 3.053478827071D-32
 Symmetry B3G  KE=-1.361823319774D-19
 Symmetry AU   KE= 2.080870603503D-34
 Symmetry B1U  KE= 3.429428250750D+01
 Symmetry B2U  KE= 2.217192057534D+00
 Symmetry B3U  KE= 2.217192057534D+00
 Orbital energies and kinetic energies (alpha):
                                 1                 2
   1 (SGG)--O                -10.191123         15.860151
   2 (SGU)--O                -10.188671         15.895021
   3 (SGG)--O                 -0.743440          1.832473
   4 (SGU)--O                 -0.565525          1.252120
   5 (SGG)--O                 -0.491617          1.231624
   6 (PIU)--O                 -0.282808          1.108596
   7 (PIU)--O                 -0.282808          1.108596
   8 (PIG)--V                  0.051088          1.223193
   9 (PIG)--V                  0.051088          1.223193
  10 (SGU)--V                  0.108561          1.086112
  11 (SGG)--V                  0.151477          0.969340
  12 (SGU)--V                  0.426853          1.633207
  13 (SGG)--V                  0.469941          1.352729
  14 (PIU)--V                  0.532543          1.862393
  15 (PIU)--V                  0.532543          1.862393
  16 (PIG)--V                  0.654828          2.337890
  17 (PIG)--V                  0.654828          2.337890
  18 (SGU)--V                  0.746963          1.802159
  19 (SGG)--V                  0.813612          2.145778
  20 (SGG)--V                  1.026755          2.137111
  21 (SGU)--V                  1.207770          3.781806
  22 (PIU)--V                  1.377286          2.527932
  23 (PIU)--V                  1.377286          2.527932
  24 (SGU)--V                  1.479050          2.442365
  25 (DLTG)--V                 1.548605          2.614242
  26 (DLTG)--V                 1.548605          2.614242
  27 (PIG)--V                  1.933175          2.904053
  28 (PIG)--V                  1.933175          2.904053
  29 (DLTU)--V                 1.944840          3.039578
  30 (DLTU)--V                 1.944840          3.039578
  31 (SGG)--V                  2.257214          3.536265
  32 (PIU)--V                  2.388681          3.384354
  33 (PIU)--V                  2.388681          3.384354
  34 (SGU)--V                  2.744693          4.801733
  35 (PIG)--V                  3.042355          4.246858
  36 (PIG)--V                  3.042355          4.246858
  37 (SGG)--V                  3.363108          6.435460
  38 (SGU)--V                  3.838028          8.136166
  39 (SGG)--V                  4.587504          9.237158
  40 (SGU)--V                  5.364119          9.407873
 Total kinetic energy from orbitals= 7.657716413173D+01
 No NMR shielding tensors so no spin-rotation constants.
 Leave Link  601 at Tue Aug 20 19:19:34 2024, MaxMem=   33554432 cpu:       0.2
 (Enter /programs/64bit/g09/g09-gfortran/bin/l701.exe)
 Compute integral first derivatives.
 ... and contract with generalized density number  0.
 Leave Link  701 at Tue Aug 20 19:19:35 2024, MaxMem=   33554432 cpu:       0.1
 (Enter /programs/64bit/g09/g09-gfortran/bin/l702.exe)
 L702 exits ... SP integral derivatives will be done elsewhere.
 Leave Link  702 at Tue Aug 20 19:19:35 2024, MaxMem=   33554432 cpu:       0.0
 (Enter /programs/64bit/g09/g09-gfortran/bin/l703.exe)
 Compute integral first derivatives, UseDBF=F ICtDFT=           0.
 Integral derivatives from FoFDir, PRISM(SPDF).
 Calling FoFJK, ICntrl=      2127 FMM=F ISym2X=1 I1Cent= 0 IOpClX= 0 NMat=1 NMatS=1 NMatT=0.
[...]
  26 (DLTG)--V                 1.549408          2.614897
  27 (PIG)--V                  1.931885          2.898552
  28 (PIG)--V                  1.931885          2.898552
  29 (DLTU)--V                 1.943536          3.038202
  30 (DLTU)--V                 1.943536          3.038202
  31 (SGG)--V                  2.249314          3.519619
  32 (PIU)--V                  2.381444          3.373514
  33 (PIU)--V                  2.381444          3.373514
  34 (SGU)--V                  2.729806          4.767503
  35 (PIG)--V                  3.029805          4.233658
  36 (PIG)--V                  3.029805          4.233658
  37 (SGG)--V                  3.348738          6.381511
  38 (SGU)--V                  3.826570          8.091025
  39 (SGG)--V                  4.571773          9.244198
  40 (SGU)--V                  5.333099          9.384223
 Total kinetic energy from orbitals= 7.654677677484D+01
  Exact polarizability:   8.000   0.000   8.000  -0.000  -0.000  28.174
 Approx polarizability:   9.973  -0.000   9.973  -0.000  -0.000  51.708
 No NMR shielding tensors so no spin-rotation constants.
 Leave Link  601 at Tue Aug 20 19:19:50 2024, MaxMem=   33554432 cpu:       0.2
 (Enter /programs/64bit/g09/g09-gfortran/bin/l701.exe)
 Compute integral second derivatives.
 ... and contract with generalized density number  0.
 Leave Link  701 at Tue Aug 20 19:19:50 2024, MaxMem=   33554432 cpu:       0.2
 (Enter /programs/64bit/g09/g09-gfortran/bin/l702.exe)
 L702 exits ... SP integral derivatives will be done elsewhere.
 Leave Link  702 at Tue Aug 20 19:19:50 2024, MaxMem=   33554432 cpu:       0.0
 (Enter /programs/64bit/g09/g09-gfortran/bin/l703.exe)
 Compute integral second derivatives, UseDBF=F ICtDFT=           0.
 Integral derivatives from FoFDir, PRISM(SPDF).
 Calling FoFJK, ICntrl=    100127 FMM=F ISym2X=1 I1Cent= 0 IOpClX= 0 NMat=1 NMatS=1 NMatT=0.
 FoFCou: FMM=F IPFlag=           0 FMFlag=      100000 FMFlg1=         800
         NFxFlg=           0 DoJE=F BraDBF=F KetDBF=F FulRan=T
         Omega=  0.000000  0.000000  1.000000  0.000000  0.000000 ICntrl=  100127 IOpCl=  0
         NMat0=    1 NMatS0=    1 NMatT0=    0 NMatD0=    1 NMtDS0=    0 NMtDT0=    0
         I1Cent=           0 NGrid=           0.
 Petite list used in FoFCou.
 Leave Link  703 at Tue Aug 20 19:19:53 2024, MaxMem=   33554432 cpu:       2.2
 (Enter /programs/64bit/g09/g09-gfortran/bin/l716.exe)
 Dipole        = 2.79703940D-17-3.85185989D-34 1.21343907D-15
 Polarizability= 8.00026922D+00 3.50808773D-12 8.00026922D+00
                -2.56886267D-10-2.34219856D-11 2.81742689D+01
 Full mass-weighted force constant matrix:
 Low frequencies ---    0.0011    0.0011    0.0012   34.7143   34.7143  566.7332
 Low frequencies ---  566.7332  776.3503  776.3503
 Diagonal vibrational polarizability:
        3.5566661       3.5566661       0.1952127
 Harmonic frequencies (cm**-1), IR intensities (KM/Mole), Raman scattering
 activities (A**4/AMU), depolarization ratios for plane and unpolarized
 incident light, reduced masses (AMU), force constants (mDyne/A),
 and normal coordinates:
                     1                      2                      3
                    PIG                    PIG                    PIU
 Frequencies --   566.7252               566.7252               776.3503
 Red. masses --     1.5718                 1.5718                 1.0848
 Frc consts  --     0.2974                 0.2974                 0.3852
 IR Inten    --     0.0000                 0.0000                79.6573
  Atom  AN      X      Y      Z        X      Y      Z        X      Y      Z
     1   6     0.00   0.16  -0.00     0.16  -0.00  -0.00     0.06   0.00  -0.00
     2   6    -0.00  -0.16  -0.00    -0.16   0.00   0.00     0.06   0.00  -0.00
     3   1    -0.00  -0.69   0.00    -0.69   0.00  -0.00    -0.70  -0.00   0.00
     4   1     0.00   0.69   0.00     0.69  -0.00   0.00    -0.70  -0.00   0.00
                     4                      5                      6
                    PIU                    SGG                    SGU
 Frequencies --   776.3503              2084.8396              3431.2912
 Red. masses --     1.0848                 3.8120                 1.0848
 Frc consts  --     0.3852                 9.7622                 7.5253
 IR Inten    --    79.6573                 0.0000                85.4063
  Atom  AN      X      Y      Z        X      Y      Z        X      Y      Z
     1   6    -0.00   0.06  -0.00     0.00   0.00   0.36     0.00   0.00   0.06
     2   6    -0.00   0.06   0.00    -0.00   0.00  -0.36     0.00  -0.00   0.06
     3   1     0.00  -0.70   0.00    -0.00  -0.00   0.61    -0.00  -0.00  -0.70
     4   1     0.00  -0.70  -0.00     0.00  -0.00  -0.61    -0.00   0.00  -0.70
                     7
                    SGG
 Frequencies --  3531.0040
 Red. masses --     1.2297
 Frc consts  --     9.0329
 IR Inten    --     0.0000
  Atom  AN      X      Y      Z
     1   6    -0.00  -0.00  -0.10
     2   6     0.00  -0.00   0.10
     3   1     0.00   0.00   0.70
     4   1    -0.00   0.00  -0.70

 -------------------
 - Thermochemistry -
 -------------------
 Temperature   298.150 Kelvin.  Pressure   1.00000 Atm.
 Atom     1 has atomic number  6 and mass  12.00000
 Atom     2 has atomic number  6 and mass  12.00000
 Atom     3 has atomic number  1 and mass   1.00783
 Atom     4 has atomic number  1 and mass   1.00783
 Molecular mass:    26.01565 amu.
 Principal axes and moments of inertia in atomic units:
                           1         2         3
     Eigenvalues --     0.00000  51.18961  51.18961
           X           -0.00000   1.00000  -0.00000
           Y            0.00000   0.00000   1.00000
           Z            1.00000   0.00000  -0.00000
 This molecule is a prolate symmetric top.
 Rotational symmetry number  2.
 Rotational temperature (Kelvin)      1.69202
 Rotational constant (GHZ):          35.256008
 Zero-point vibrational energy      70180.6 (Joules/Mol)
                                   16.77357 (Kcal/Mol)
 Warning -- explicit consideration of   2 degrees of freedom as
           vibrations may cause significant error
 Vibrational temperatures:    815.39   815.39  1116.99  1116.99  2999.62
          (Kelvin)           4936.86  5080.32
 
 Zero-point correction=                           0.026730 (Hartree/Particle)
 Thermal correction to Energy=                    0.029621
 Thermal correction to Enthalpy=                  0.030565
 Thermal correction to Gibbs Free Energy=         0.007726
 Sum of electronic and zero-point Energies=            -77.302836
 Sum of electronic and thermal Energies=               -77.299946
 Sum of electronic and thermal Enthalpies=             -77.299001
 Sum of electronic and thermal Free Energies=          -77.321840
 
                     E (Thermal)             CV                S
                      KCal/Mol        Cal/Mol-Kelvin    Cal/Mol-Kelvin
 Total                   18.587              8.564             48.068
 Electronic               0.000              0.000              0.000
 Translational            0.889              2.981             35.704
 Rotational               0.592              1.987             10.887
 Vibrational             17.106              3.596              1.477
 Vibration     1          0.923              1.103              0.511
 Vibration     2          0.923              1.103              0.511
                       Q            Log10(Q)             Ln(Q)
 Total Bot       0.279421D-03         -3.553740         -8.182790
 Total V=0       0.551265D+09          8.741360         20.127726
 Vib (Bot)       0.608069D-12        -12.216047        -28.128488
 Vib (Bot)    1  0.272448D+00         -0.564717         -1.300309
 Vib (Bot)    2  0.272448D+00         -0.564717         -1.300309
 Vib (V=0)       0.119965D+01          0.079053          0.182027
 Vib (V=0)    1  0.106941D+01          0.029144          0.067107
 Vib (V=0)    2  0.106941D+01          0.029144          0.067107
 Electronic      0.100000D+01          0.000000          0.000000
 Translational   0.521564D+07          6.717307         15.467172
 Rotational      0.881048D+02          1.944999          4.478527
 
                                                                ethyne
                                                             IR Spectrum
 
     3   3                                                2                                                                          
     5   4                                                0                                              7      5                    
     3   3                                                8                                              7      6                    
     1   1                                                5                                              6      7                    
 
         X                                                                                               X                           
         X                                                                                               X                           
         X                                                                                               X                           
         X                                                                                               X                           
         X                                                                                               X                           
         X                                                                                               X                           
         X                                                                                               X                           
         X                                                                                               X                           
         X                                                                                               X                           
         X                                                                                               X                           
         X                                                                                               X                           
                                                                                                         X                           
                                                                                                         X                           
                                                                                                         X                           
                                                                                                         X                           
                                                                                                         X                           
                                                                                                         X                           
                                                                                                         X                           
                                                                                                         X                           
                                                                                                         X                           
 
 ***** Axes restored to original set *****
 -------------------------------------------------------------------
 Center     Atomic                   Forces (Hartrees/Bohr)
 Number     Number              X              Y              Z
 -------------------------------------------------------------------
      1        6           0.000000000   -0.000000000   -0.000018019
      2        6          -0.000000000    0.000000000    0.000018019
      3        1          -0.000000000   -0.000000000    0.000405172
      4        1          -0.000000000    0.000000000   -0.000405172
 -------------------------------------------------------------------
 Cartesian Forces:  Max     0.000405172 RMS     0.000165574
 Force constants in Cartesian coordinates: 
                1             2             3             4             5 
      1  0.389596D-01
      2  0.000000D+00  0.389596D-01
      3  0.000000D+00  0.000000D+00  0.155723D+01
      4 -0.177532D-01  0.000000D+00  0.000000D+00  0.389596D-01
      5  0.000000D+00 -0.177532D-01  0.000000D+00  0.000000D+00  0.389596D-01
      6  0.000000D+00  0.000000D+00 -0.114297D+01  0.000000D+00  0.000000D+00
      7 -0.208563D-01  0.000000D+00  0.000000D+00 -0.350128D-03  0.000000D+00
      8  0.000000D+00 -0.208563D-01  0.000000D+00  0.000000D+00 -0.350128D-03
      9  0.000000D+00  0.000000D+00 -0.419656D+00  0.000000D+00  0.000000D+00
     10 -0.350128D-03  0.000000D+00  0.000000D+00 -0.208563D-01  0.000000D+00
     11  0.000000D+00 -0.350128D-03  0.000000D+00  0.000000D+00 -0.208563D-01
     12  0.000000D+00  0.000000D+00  0.540067D-02  0.000000D+00  0.000000D+00
                6             7             8             9            10 
      6  0.155723D+01
      7  0.000000D+00  0.143697D-01
      8  0.000000D+00  0.000000D+00  0.143697D-01
      9  0.540067D-02  0.000000D+00  0.000000D+00  0.414389D+00
     10  0.000000D+00  0.683681D-02  0.000000D+00  0.000000D+00  0.143697D-01
     11  0.000000D+00  0.000000D+00  0.683681D-02  0.000000D+00  0.000000D+00
     12 -0.419656D+00  0.000000D+00  0.000000D+00 -0.133848D-03  0.000000D+00
               11            12 
     11  0.143697D-01
     12  0.000000D+00  0.414389D+00
 Force constants in internal coordinates: 
                1             2             3             4             5 
      1  0.113231D+01
      2 -0.526682D-02  0.414389D+00
      3 -0.526682D-02  0.133848D-03  0.414389D+00
      4  0.000000D+00  0.000000D+00  0.000000D+00  0.575140D-01
      5  0.000000D+00  0.000000D+00  0.000000D+00 -0.277637D-01  0.575140D-01
      6  0.000000D+00  0.000000D+00  0.000000D+00  0.000000D+00  0.000000D+00
      7  0.000000D+00  0.000000D+00  0.000000D+00  0.000000D+00  0.000000D+00
                6             7 
      6  0.575140D-01
      7 -0.277637D-01  0.575140D-01
 Leave Link  716 at Tue Aug 20 19:19:53 2024, MaxMem=   33554432 cpu:       0.0
 (Enter /programs/64bit/g09/g09-gfortran/bin/l103.exe)

 GradGradGradGradGradGradGradGradGradGradGradGradGradGradGradGradGradGrad
 Berny optimization.
 Internal  Forces:  Max     0.000405172 RMS     0.000261375
 Search for a local minimum.
 Step number   1 out of a maximum of    2
 All quantities printed in internal units (Hartrees-Bohrs-Radians)
 Second derivative matrix not updated -- analytic derivatives used.
 The second derivative matrix:
                          R1        R2        R3        A1        A2
           R1           1.13231
           R2          -0.00527   0.41439
           R3          -0.00527   0.00013   0.41439
           A1          -0.00000   0.00000   0.00000   0.05751
           A2           0.00000  -0.00000  -0.00000  -0.02776   0.05751
           A3          -0.00000   0.00000  -0.00000   0.00000  -0.00000
           A4          -0.00000  -0.00000   0.00000   0.00000  -0.00000
                          A3        A4
           A3           0.05751
           A4          -0.02776   0.05751
     Eigenvalues ---    0.02975   0.02975   0.08528   0.08528   0.41426
     Eigenvalues ---    0.41445   1.13238
 Angle between quadratic step and forces=  19.86 degrees.
 Linear search not attempted -- first point.
 Iteration  1 RMS(Cart)=  0.00062574 RMS(Int)=  0.00000000
 Iteration  2 RMS(Cart)=  0.00000000 RMS(Int)=  0.00000000
 ClnCor:  largest displacement from symmetrization is 2.53D-13 for atom     1.
 Variable       Old X    -DE/DX   Delta X   Delta X   Delta X     New X
                                 (Linear)    (Quad)   (Total)
    R1        2.27812  -0.00039   0.00000  -0.00035  -0.00035   2.27777
    R2        2.01490  -0.00041   0.00000  -0.00098  -0.00098   2.01391
    R3        2.01490  -0.00041   0.00000  -0.00098  -0.00098   2.01391
    A1        3.14159  -0.00000   0.00000   0.00000   0.00000   3.14159
    A2        3.14159  -0.00000   0.00000  -0.00000   0.00000   3.14159
    A3        3.14159  -0.00000   0.00000  -0.00000   0.00000   3.14159
    A4        3.14159   0.00000   0.00000  -0.00000   0.00000   3.14159
         Item               Value     Threshold  Converged?
 Maximum Force            0.000405     0.000450     YES
 RMS     Force            0.000261     0.000300     YES
 Maximum Displacement     0.001157     0.001800     YES
 RMS     Displacement     0.000626     0.001200     YES
 Predicted change in Energy=-4.657945D-07
 Optimization completed.
    -- Stationary point found.
                           ----------------------------
                           !   Optimized Parameters   !
                           ! (Angstroms and Degrees)  !
 --------------------------                            --------------------------
 ! Name  Definition              Value          Derivative Info.                !
 --------------------------------------------------------------------------------
 ! R1    R(1,2)                  1.2055         -DE/DX =   -0.0004              !
 ! R2    R(1,3)                  1.0662         -DE/DX =   -0.0004              !
 ! R3    R(2,4)                  1.0662         -DE/DX =   -0.0004              !
 ! A1    L(2,1,3,-1,-1)        180.0            -DE/DX =    0.0                 !
 ! A2    L(1,2,4,-1,-1)        180.0            -DE/DX =    0.0                 !
 ! A3    L(2,1,3,-2,-2)        180.0            -DE/DX =    0.0                 !
 ! A4    L(1,2,4,-2,-2)        180.0            -DE/DX =    0.0                 !
 --------------------------------------------------------------------------------
 GradGradGradGradGradGradGradGradGradGradGradGradGradGradGradGradGradGrad

 Leave Link  103 at Tue Aug 20 19:19:53 2024, MaxMem=   33554432 cpu:       0.0
 (Enter /programs/64bit/g09/g09-gfortran/bin/l9999.exe)
 1\1\GINC-MOLMOD\Freq\RB3LYP\6-31G(d,p)\C2H2\OSPITE\20-Aug-2024\0\\#P G
 eom=AllCheck Guess=TCheck SCRF=Check GenChk RB3LYP/6-31G(d,p) Freq\\et
 hyne\\0,1\C,0.,0.,-0.0012652053\C,0.,0.,1.2042652053\H,0.,0.,-1.067501
 8361\H,0.,0.,2.2705018361\\Version=EM64L-G09RevA.02\State=1-SGG\HF=-77
 .3295664\RMSD=4.959e-10\RMSF=1.656e-04\ZeroPoint=0.0267304\Thermal=0.0
 296207\Dipole=0.,0.,0.\DipoleDeriv=-0.194896,0.,0.,0.,-0.194896,0.,0.,
 0.,-0.2018066,-0.194896,0.,0.,0.,-0.194896,0.,0.,0.,-0.2018066,0.19489
 6,0.,0.,0.,0.194896,0.,0.,0.,0.2018066,0.194896,0.,0.,0.,0.194896,0.,0
 .,0.,0.2018066\Polar=8.0002692,0.,8.0002692,0.,0.,28.1742689\PG=D*H [C
 *(H1C1.C1H1)]\NImag=0\\0.03895963,0.,0.03895963,0.,0.,1.55722820,-0.01
 775315,0.,0.,0.03895963,0.,-0.01775315,0.,0.,0.03895963,0.,0.,-1.14297
 268,0.,0.,1.55722820,-0.02085635,0.,0.,-0.00035013,0.,0.,0.01436966,0.
 ,-0.02085635,0.,0.,-0.00035013,0.,0.,0.01436966,0.,0.,-0.41965619,0.,0
 .,0.00540067,0.,0.,0.41438937,-0.00035013,0.,0.,-0.02085635,0.,0.,0.00
 683681,0.,0.,0.01436966,0.,-0.00035013,0.,0.,-0.02085635,0.,0.,0.00683
 681,0.,0.,0.01436966,0.,0.,0.00540067,0.,0.,-0.41965619,0.,0.,-0.00013
 385,0.,0.,0.41438937\\0.,0.,0.00001802,0.,0.,-0.00001802,0.,0.,-0.0004
 0517,0.,0.,0.00040517\\\@


 "WOULD YOU TELL ME PLEASE, WHICH WAY I OUGHT TO WALK FROM HERE?"
 "THAT DEPENDS A GREAT DEAL ON WHERE YOU WANT TO GO," SAID THE CAT.
 "I DON'T MUCH CARE WHERE -- ", SAID ALICE.
 "THEN IT DOESN'T MATTER WHICH WAY YOU WALK," SAID THE CAT.

                                      -- LEWIS CARROLL
 Job cpu time:  0 days  0 hours  0 minutes 13.3 seconds.
 File lengths (MBytes):  RWF=      5 Int=      0 D2E=      0 Chk=      1 Scr=      1
 Normal termination of Gaussian 09 at Tue Aug 20 19:19:53 2024.
