 Entering Gaussian System, Link 0=/programs/64bit/g09/g09-gfortran/bin/g09
 Input=water_dimer.com
 Output=water_dimer.log
 Initial command:
 /programs/64bit/g09/g09-gfortran/bin/l1.exe /home/ospite/Desktop/MMfP/Project8/gaussian_simulations/Gau-6930.inp -scrdir=/home/ospite/Desktop/MMfP/Project8/gaussian_simulations/
 Entering Link 1 = /programs/64bit/g09/g09-gfortran/bin/l1.exe PID=      6931.
  
 Copyright (c) 1988,1990,1992,1993,1995,1998,2003,2009, Gaussian, Inc.
                  All Rights Reserved.
  
 This is part of the Gaussian(R) 09 program.  It is based on
 the Gaussian(R) 03 system (copyright 2003, Gaussian, Inc.),
 the Gaussian(R) 98 system (copyright 1998, Gaussian, Inc.),
 the Gaussian(R) 94 system (copyright 1995, Gaussian, Inc.),
 the Gaussian 92(TM) system (copyright 1992, Gaussian, Inc.),
 the Gaussian 90(TM) system (copyright 1990, Gaussian, Inc.),
 the Gaussian 88(TM) system (copyright 1988, Gaussian, Inc.),
 the Gaussian 86(TM) system (copyright 1986, Carnegie Mellon
 University), and the Gaussian 82(TM) system (copyright 1983,
 Carnegie Mellon University). Gaussian is a federally registered
 trademark of Gaussian, Inc.
  
 This software contains proprietary and confidential information,
 including trade secrets, belonging to Gaussian, Inc.
  
 This software is provided under written license and may be
 used, copied, transmitted, or stored only in accord with that
 written license.
  
 The following legend is applicable only to US Government
 contracts under FAR:
  
                    RESTRICTED RIGHTS LEGEND
  
 Use, reproduction and disclosure by the US Government is
 subject to restrictions as set forth in subparagraphs (a)
 and (c) of the Commercial Computer Software - Restricted
 Rights clause in FAR 52.227-19.
  
 Gaussian, Inc.
 340 Quinnipiac St., Bldg. 40, Wallingford CT 06492
  
  
 ---------------------------------------------------------------
 Warning -- This program may not be used in any manner that
 competes with the business of Gaussian, Inc. or will provide
 assistance to any competitor of Gaussian, Inc.  The licensee
 of this program is prohibited from giving any competitor of
 Gaussian, Inc. access to this program.  By using this program,
 the user acknowledges that Gaussian, Inc. is engaged in the
 business of creating and licensing software in the field of
 computational chemistry and represents and warrants to the
 licensee that it is not a competitor of Gaussian, Inc. and that
 it will not use this program in any manner prohibited above.
 ---------------------------------------------------------------
  

 Cite this work as:
 Gaussian 09, Revision A.02,
 M. J. Frisch, G. W. Trucks, H. B. Schlegel, G. E. Scuseria, 
 M. A. Robb, J. R. Cheeseman, G. Scalmani, V. Barone, B. Mennucci, 
 G. A. Petersson, H. Nakatsuji, M. Caricato, X. Li, H. P. Hratchian, 
 A. F. Izmaylov, J. Bloino, G. Zheng, J. L. Sonnenberg, M. Hada, 
 M. Ehara, K. Toyota, R. Fukuda, J. Hasegawa, M. Ishida, T. Nakajima, 
 Y. Honda, O. Kitao, H. Nakai, T. Vreven, J. A. Montgomery, Jr., 
 J. E. Peralta, F. Ogliaro, M. Bearpark, J. J. Heyd, E. Brothers, 
 K. N. Kudin, V. N. Staroverov, R. Kobayashi, J. Normand, 
 K. Raghavachari, A. Rendell, J. C. Burant, S. S. Iyengar, J. Tomasi, 
 M. Cossi, N. Rega, J. M. Millam, M. Klene, J. E. Knox, J. B. Cross, 
 V. Bakken, C. Adamo, J. Jaramillo, R. Gomperts, R. E. Stratmann, 
 O. Yazyev, A. J. Austin, R. Cammi, C. Pomelli, J. W. Ochterski, 
 R. L. Martin, K. Morokuma, V. G. Zakrzewski, G. A. Voth, 
 P. Salvador, J. J. Dannenberg, S. Dapprich, A. D. Daniels, 
 O. Farkas, J. B. Foresman, J. V. Ortiz, J. Cioslowski, 
 and D. J. Fox, Gaussian, Inc., Wallingford CT, 2009.
 
 ******************************************
 Gaussian 09:  EM64L-G09RevA.02 11-Jun-2009
                20-Aug-2024 
 ******************************************
 %NProcShared=2
 Will use up to    2 processors via shared memory.
 %mem=500MB
 ---------------------------------------------
 #p B3LYP/6-31g(d,p) opt freq pop=full gfinput
 ---------------------------------------------
 1/14=-1,18=20,19=15,26=3,38=1/1,3;
 2/9=110,12=2,17=6,18=5,40=1/2;
 3/5=1,6=6,7=101,11=2,16=1,24=10,25=1,30=1,71=1,74=-5/1,2,3;
 4//1;
 5/5=2,38=5/2;
 6/7=3,28=1/1;
 7//1,2,3,16;
 1/14=-1,18=20,19=15/3(2);
 2/9=110/2;
 99//99;
 2/9=110/2;
 3/5=1,6=6,7=101,11=2,16=1,25=1,30=1,71=1,74=-5/1,2,3;
 4/5=5,16=3/1;
 5/5=2,38=5/2;
 7//1,2,3,16;
 1/14=-1,18=20,19=15/3(-5);
 2/9=110/2;
 6/7=3,19=2,28=1/1;
 99/9=1/99;
 Leave Link    1 at Tue Aug 20 23:01:03 2024, MaxMem=   65536000 cpu:       0.1
 (Enter /programs/64bit/g09/g09-gfortran/bin/l101.exe)
 -----------
 water dimer
 -----------
 Symbolic Z-matrix:
 Charge =  0 Multiplicity = 1
 o
 h                    1    ho2
 h                    1    ho3      2    hoh3
 o                    1    oo4      2    ooh4     3    dih4     0
 h                    4    ho5      3    hoh5     1    dih5     0
 h                    4    ho6      3    hoh6     5    dih6     0
       Variables:
  ho2                   0.95                     
  ho3                   0.95                     
  hoh3                109.471                    
  oo4                   2.952                    
  ooh4                116.                       
  dih4                  0.                       
  ho5                   0.95                     
  hoh5                109.471                    
  dih5                 50.                       
  ho6                   0.95                     
  hoh6                109.471                    
  dih6               -109.471                    
 
     4 tetrahedral angles replaced.
 NAtoms=      6 NQM=      6 NQMF=      0 NMic=      0 NMicF=      0 NTot=      6.
                    Isotopes and Nuclear Properties:
 (Nuclear quadrupole moments (NQMom) in fm**2, nuclear magnetic moments (NMagM)
  in nuclear magnetons)

  Atom         1           2           3           4           5           6
 IAtWgt=          16           1           1          16           1           1
 AtmWgt=  15.9949146   1.0078250   1.0078250  15.9949146   1.0078250   1.0078250
 NucSpn=           0           1           1           0           1           1
 AtZEff=   0.0000000   0.0000000   0.0000000   0.0000000   0.0000000   0.0000000
 NQMom=    0.0000000   0.0000000   0.0000000   0.0000000   0.0000000   0.0000000
 NMagM=    0.0000000   2.7928460   2.7928460   0.0000000   2.7928460   2.7928460
 Leave Link  101 at Tue Aug 20 23:01:03 2024, MaxMem=   65536000 cpu:       0.2
 (Enter /programs/64bit/g09/g09-gfortran/bin/l103.exe)

 GradGradGradGradGradGradGradGradGradGradGradGradGradGradGradGradGradGrad
 Berny optimization.
 Initialization pass.
                           ----------------------------
                           !    Initial Parameters    !
                           ! (Angstroms and Degrees)  !
 --------------------------                            --------------------------
 ! Name  Definition              Value          Derivative Info.                !
 --------------------------------------------------------------------------------
 ! R1    R(1,2)                  0.95           estimate D2E/DX2                !
 ! R2    R(1,3)                  0.95           estimate D2E/DX2                !
 ! R3    R(3,4)                  2.0111         estimate D2E/DX2                !
 ! R4    R(4,5)                  0.95           estimate D2E/DX2                !
 ! R5    R(4,6)                  0.95           estimate D2E/DX2                !
 ! A1    A(2,1,3)              109.4712         estimate D2E/DX2                !
 ! A2    A(1,3,4)              170.3923         estimate D2E/DX2                !
 ! A3    A(3,4,5)              109.4712         estimate D2E/DX2                !
 ! A4    A(3,4,6)              109.4712         estimate D2E/DX2                !
 ! A5    A(5,4,6)              100.6719         estimate D2E/DX2                !
 ! D1    D(2,1,3,4)            180.0            estimate D2E/DX2                !
 ! D2    D(1,3,4,5)             50.0            estimate D2E/DX2                !
 ! D3    D(1,3,4,6)            -59.4712         estimate D2E/DX2                !
 --------------------------------------------------------------------------------
 Trust Radius=3.00D-01 FncErr=1.00D-07 GrdErr=1.00D-06
 Number of steps in this run=  23 maximum allowed number of steps= 100.
 GradGradGradGradGradGradGradGradGradGradGradGradGradGradGradGradGradGrad

 Leave Link  103 at Tue Aug 20 23:01:03 2024, MaxMem=   65536000 cpu:       0.0
 (Enter /programs/64bit/g09/g09-gfortran/bin/l202.exe)
                          Input orientation:                          
 ---------------------------------------------------------------------
 Center     Atomic      Atomic             Coordinates (Angstroms)
 Number     Number       Type             X           Y           Z
 ---------------------------------------------------------------------
      1          8           0        0.000000    0.000000    0.000000
      2          1           0        0.000000    0.000000    0.950000
      3          1           0        0.895669    0.000000   -0.316667
      4          8           0        2.653240    0.000000   -1.294072
      5          1           0        2.650181    0.686122   -1.951131
      6          1           0        2.708868   -0.771506   -1.845601
 ---------------------------------------------------------------------
                    Distance matrix (angstroms):
                    1          2          3          4          5
     1  O    0.000000
     2  H    0.950000   0.000000
     3  H    0.950000   1.551344   0.000000
     4  O    2.952000   3.474988   2.011064   0.000000
     5  H    3.361716   3.988833   2.494103   0.950000   0.000000
     6  H    3.367407   3.968447   2.494103   0.950000   1.462621
                    6
     6  H    0.000000
 Stoichiometry    H4O2
 Framework group  C1[X(H4O2)]
 Deg. of freedom    12
 Full point group                 C1      NOp   1
 Largest Abelian subgroup         C1      NOp   1
 Largest concise Abelian subgroup C1      NOp   1
                         Standard orientation:                         
 ---------------------------------------------------------------------
 Center     Atomic      Atomic             Coordinates (Angstroms)
 Number     Number       Type             X           Y           Z
 ---------------------------------------------------------------------
      1          8           0        1.526664    0.067665    0.096974
      2          1           0        2.010515   -0.406055   -0.569343
      3          1           0        0.594592   -0.035932   -0.054718
      4          8           0       -1.415734   -0.061697   -0.102681
      5          1           0       -1.745471    0.826820   -0.037014
      6          1           0       -1.747075   -0.432581    0.706737
 ---------------------------------------------------------------------
 Rotational constants (GHZ):    226.1505282      6.2359933      6.2258079
 Leave Link  202 at Tue Aug 20 23:01:03 2024, MaxMem=   65536000 cpu:       0.0
 (Enter /programs/64bit/g09/g09-gfortran/bin/l301.exe)
 Standard basis: 6-31G(d,p) (6D, 7F)
 Ernie: Thresh=  0.10000D-02 Tol=  0.10000D-05 Strict=F.
 AO basis set in the form of general basis input (Overlap normalization):
      1 0
 S   6 1.00       0.000000000000
      0.5484671660D+04  0.1831074430D-02
      0.8252349460D+03  0.1395017220D-01
      0.1880469580D+03  0.6844507810D-01
      0.5296450000D+02  0.2327143360D+00
      0.1689757040D+02  0.4701928980D+00
      0.5799635340D+01  0.3585208530D+00
 SP   3 1.00       0.000000000000
      0.1553961625D+02 -0.1107775495D+00  0.7087426823D-01
      0.3599933586D+01 -0.1480262627D+00  0.3397528391D+00
      0.1013761750D+01  0.1130767015D+01  0.7271585773D+00
 SP   1 1.00       0.000000000000
      0.2700058226D+00  0.1000000000D+01  0.1000000000D+01
 D   1 1.00       0.000000000000
      0.8000000000D+00  0.1000000000D+01
 ****
      2 0
 S   3 1.00       0.000000000000
      0.1873113696D+02  0.3349460434D-01
      0.2825394365D+01  0.2347269535D+00
      0.6401216923D+00  0.8137573261D+00
 S   1 1.00       0.000000000000
      0.1612777588D+00  0.1000000000D+01
 P   1 1.00       0.000000000000
      0.1100000000D+01  0.1000000000D+01
 ****
      3 0
 S   3 1.00       0.000000000000
      0.1873113696D+02  0.3349460434D-01
      0.2825394365D+01  0.2347269535D+00
      0.6401216923D+00  0.8137573261D+00
 S   1 1.00       0.000000000000
      0.1612777588D+00  0.1000000000D+01
 P   1 1.00       0.000000000000
      0.1100000000D+01  0.1000000000D+01
 ****
      4 0
 S   6 1.00       0.000000000000
      0.5484671660D+04  0.1831074430D-02
      0.8252349460D+03  0.1395017220D-01
      0.1880469580D+03  0.6844507810D-01
      0.5296450000D+02  0.2327143360D+00
      0.1689757040D+02  0.4701928980D+00
      0.5799635340D+01  0.3585208530D+00
 SP   3 1.00       0.000000000000
      0.1553961625D+02 -0.1107775495D+00  0.7087426823D-01
      0.3599933586D+01 -0.1480262627D+00  0.3397528391D+00
      0.1013761750D+01  0.1130767015D+01  0.7271585773D+00
 SP   1 1.00       0.000000000000
      0.2700058226D+00  0.1000000000D+01  0.1000000000D+01
 D   1 1.00       0.000000000000
      0.8000000000D+00  0.1000000000D+01
 ****
      5 0
 S   3 1.00       0.000000000000
      0.1873113696D+02  0.3349460434D-01
      0.2825394365D+01  0.2347269535D+00
      0.6401216923D+00  0.8137573261D+00
 S   1 1.00       0.000000000000
      0.1612777588D+00  0.1000000000D+01
 P   1 1.00       0.000000000000
      0.1100000000D+01  0.1000000000D+01
 ****
      6 0
 S   3 1.00       0.000000000000
      0.1873113696D+02  0.3349460434D-01
      0.2825394365D+01  0.2347269535D+00
      0.6401216923D+00  0.8137573261D+00
 S   1 1.00       0.000000000000
      0.1612777588D+00  0.1000000000D+01
 P   1 1.00       0.000000000000
      0.1100000000D+01  0.1000000000D+01
 ****

 There are    50 symmetry adapted basis functions of A   symmetry.
 Integral buffers will be    131072 words long.
 Raffenetti 2 integral format.
 Two-electron integral symmetry is turned on.
    50 basis functions,    84 primitive gaussians,    50 cartesian basis functions
    10 alpha electrons       10 beta electrons
       nuclear repulsion energy        36.5306510653 Hartrees.
 IExCor=  402 DFT=T Ex+Corr=B3LYP ExCW=0 ScaHFX=  0.200000
 ScaDFX=  0.800000  0.720000  1.000000  0.810000 ScalE2=  1.000000  1.000000
 IRadAn=      0 IRanWt=     -1 IRanGd=            0 ICorTp=0
 NAtoms=    6 NActive=    6 NUniq=    6 SFac= 7.50D-01 NAtFMM=   80 NAOKFM=F Big=F
 Leave Link  301 at Tue Aug 20 23:01:03 2024, MaxMem=   65536000 cpu:       0.1
 (Enter /programs/64bit/g09/g09-gfortran/bin/l302.exe)
 NPDir=0 NMtPBC=     1 NCelOv=     1 NCel=       1 NClECP=     1 NCelD=      1
         NCelK=      1 NCelE2=     1 NClLst=     1 CellRange=     0.0.
 One-electron integrals computed using PRISM.
 NBasis=    50 RedAO= T  NBF=    50
 NBsUse=    50 1.00D-06 NBFU=    50
 Precomputing XC quadrature grid using
 IXCGrd= 2 IRadAn=           0 IRanWt=          -1 IRanGd=           0 AccXCQ= 1.00D-10.
 NRdTot=     374 NPtTot=       47158 NUsed=       49867 NTot=       49899
 NSgBfM=    50    50    50    50    50 NAtAll=     6     6.
 Leave Link  302 at Tue Aug 20 23:01:04 2024, MaxMem=   65536000 cpu:       0.3
 (Enter /programs/64bit/g09/g09-gfortran/bin/l303.exe)
 DipDrv:  MaxL=1.
 Leave Link  303 at Tue Aug 20 23:01:04 2024, MaxMem=   65536000 cpu:       0.0
 (Enter /programs/64bit/g09/g09-gfortran/bin/l401.exe)
 Harris functional with IExCor=  402 diagonalized for initial guess.
 ExpMin= 1.61D-01 ExpMax= 5.48D+03 ExpMxC= 8.25D+02 IAcc=1 IRadAn=         1 AccDes= 0.00D+00
 HarFok:  IExCor=  402 AccDes= 0.00D+00 IRadAn=         1 IDoV= 1
 ScaDFX=  1.000000  1.000000  1.000000  1.000000
 FoFCou: FMM=F IPFlag=           0 FMFlag=      100000 FMFlg1=           0
         NFxFlg=           0 DoJE=T BraDBF=F KetDBF=T FulRan=T
         Omega=  0.000000  0.000000  1.000000  0.000000  0.000000 ICntrl=     500 IOpCl=  0
         NMat0=    1 NMatS0=    1 NMatT0=    0 NMatD0=    1 NMtDS0=    0 NMtDT0=    0
         I1Cent=           4 NGrid=           0.
 Petite list used in FoFCou.
 Harris En= -152.934709015276    
 Initial guess orbital symmetries:
       Occupied  (A) (A) (A) (A) (A) (A) (A) (A) (A) (A)
       Virtual   (A) (A) (A) (A) (A) (A) (A) (A) (A) (A) (A) (A)
                 (A) (A) (A) (A) (A) (A) (A) (A) (A) (A) (A) (A)
                 (A) (A) (A) (A) (A) (A) (A) (A) (A) (A) (A) (A)
                 (A) (A) (A) (A)
 The electronic state of the initial guess is 1-A.
 Leave Link  401 at Tue Aug 20 23:01:05 2024, MaxMem=   65536000 cpu:       0.9
 (Enter /programs/64bit/g09/g09-gfortran/bin/l502.exe)
 Closed shell SCF:
 Requested convergence on RMS density matrix=1.00D-08 within 128 cycles.
 Requested convergence on MAX density matrix=1.00D-06.
 Requested convergence on             energy=1.00D-06.
 No special actions if energy rises.
 Using DIIS extrapolation, IDIIS=  1040.
 Integral symmetry usage will be decided dynamically.
        49800 words used for storage of precomputed grid.
 Keep R1 ints in memory in canonical form, NReq=1757354.
 IEnd=       76128 IEndB=       76128 NGot=    65536000 MDV=    64665585
 LenX=    64665585 LenY=    64662644
 Symmetry not used in FoFDir.
 MinBra= 0 MaxBra= 2 Meth= 1.
 IRaf=       0 NMat=   1 IRICut=       1 DoRegI=T DoRafI=F ISym2E= 0 JSym2E=0.
 Integral accuracy reduced to 1.0D-05 until final iterations.

 Cycle   1  Pass 0  IDiag  1:
 E= -152.699418939335    
 DIIS: error= 5.69D-02 at cycle   1 NSaved=   1.
 NSaved= 1 IEnMin= 1 EnMin= -152.699418939335     IErMin= 1 ErrMin= 5.69D-02
 ErrMax= 5.69D-02 EMaxC= 1.00D-01 BMatC= 2.04D-01 BMatP= 2.04D-01
 IDIUse=3 WtCom= 4.31D-01 WtEn= 5.69D-01
 Coeff-Com:  0.100D+01
 Coeff-En:   0.100D+01
 Coeff:      0.100D+01
 Gap=     0.166 Goal=   None    Shift=    0.000
 GapD=    0.166 DampG=1.000 DampE=0.500 DampFc=0.5000 IDamp=-1.
 Damping current iteration by 5.00D-01
 RMSDP=1.45D-02 MaxDP=1.94D-01              OVMax= 1.90D-01

 Cycle   2  Pass 0  IDiag  1:
 E= -152.754005724956     Delta-E=       -0.054586785621 Rises=F Damp=T
 DIIS: error= 1.14D-02 at cycle   2 NSaved=   2.
 NSaved= 2 IEnMin= 2 EnMin= -152.754005724956     IErMin= 2 ErrMin= 1.14D-02
 ErrMax= 1.14D-02 EMaxC= 1.00D-01 BMatC= 1.01D-02 BMatP= 2.04D-01
 IDIUse=3 WtCom= 8.86D-01 WtEn= 1.14D-01
 Coeff-Com:  0.167D+00 0.833D+00
 Coeff-En:   0.274D+00 0.726D+00
 Coeff:      0.179D+00 0.821D+00
 Gap=     0.291 Goal=   None    Shift=    0.000
 RMSDP=1.57D-03 MaxDP=2.45D-02 DE=-5.46D-02 OVMax= 1.03D-01

 Cycle   3  Pass 0  IDiag  1:
 E= -152.848537376553     Delta-E=       -0.094531651597 Rises=F Damp=F
 DIIS: error= 2.20D-03 at cycle   3 NSaved=   3.
 NSaved= 3 IEnMin= 3 EnMin= -152.848537376553     IErMin= 3 ErrMin= 2.20D-03
 ErrMax= 2.20D-03 EMaxC= 1.00D-01 BMatC= 2.56D-04 BMatP= 1.01D-02
 IDIUse=3 WtCom= 9.78D-01 WtEn= 2.20D-02
 Coeff-Com:  0.329D-01 0.428D-01 0.924D+00
 Coeff-En:   0.000D+00 0.000D+00 0.100D+01
 Coeff:      0.322D-01 0.418D-01 0.926D+00
 Gap=     0.311 Goal=   None    Shift=    0.000
 RMSDP=3.08D-04 MaxDP=4.94D-03 DE=-9.45D-02 OVMax= 4.79D-03

 Cycle   4  Pass 0  IDiag  1:
 E= -152.848603684246     Delta-E=       -0.000066307693 Rises=F Damp=F
 DIIS: error= 1.79D-03 at cycle   4 NSaved=   4.
 NSaved= 4 IEnMin= 4 EnMin= -152.848603684246     IErMin= 4 ErrMin= 1.79D-03
 ErrMax= 1.79D-03 EMaxC= 1.00D-01 BMatC= 1.54D-04 BMatP= 2.56D-04
 IDIUse=3 WtCom= 9.82D-01 WtEn= 1.79D-02
 Coeff-Com:  0.118D-01-0.174D-01 0.537D+00 0.469D+00
 Coeff-En:   0.000D+00 0.000D+00 0.363D+00 0.637D+00
 Coeff:      0.116D-01-0.171D-01 0.534D+00 0.472D+00
 Gap=     0.307 Goal=   None    Shift=    0.000
 RMSDP=1.64D-04 MaxDP=2.21D-03 DE=-6.63D-05 OVMax= 2.43D-03

 Cycle   5  Pass 0  IDiag  1:
 E= -152.848708865323     Delta-E=       -0.000105181077 Rises=F Damp=F
 DIIS: error= 1.89D-04 at cycle   5 NSaved=   5.
 NSaved= 5 IEnMin= 5 EnMin= -152.848708865323     IErMin= 5 ErrMin= 1.89D-04
 ErrMax= 1.89D-04 EMaxC= 1.00D-01 BMatC= 1.34D-06 BMatP= 1.54D-04
 IDIUse=3 WtCom= 9.98D-01 WtEn= 1.89D-03
 Coeff-Com:  0.268D-02-0.844D-02 0.126D+00 0.150D+00 0.730D+00
 Coeff-En:   0.000D+00 0.000D+00 0.000D+00 0.000D+00 0.100D+01
 Coeff:      0.267D-02-0.842D-02 0.126D+00 0.150D+00 0.730D+00
 Gap=     0.308 Goal=   None    Shift=    0.000
 RMSDP=1.32D-05 MaxDP=1.94D-04 DE=-1.05D-04 OVMax= 1.89D-04

 Cycle   6  Pass 0  IDiag  1:
 E= -152.848709801005     Delta-E=       -0.000000935682 Rises=F Damp=F
 DIIS: error= 1.80D-05 at cycle   6 NSaved=   6.
 NSaved= 6 IEnMin= 6 EnMin= -152.848709801005     IErMin= 6 ErrMin= 1.80D-05
 ErrMax= 1.80D-05 EMaxC= 1.00D-01 BMatC= 1.45D-08 BMatP= 1.34D-06
 IDIUse=1 WtCom= 1.00D+00 WtEn= 0.00D+00
 Coeff-Com:  0.195D-03-0.462D-04-0.182D-02-0.335D-02 0.623D-02 0.999D+00
 Coeff:      0.195D-03-0.462D-04-0.182D-02-0.335D-02 0.623D-02 0.999D+00
 Gap=     0.308 Goal=   None    Shift=    0.000
 RMSDP=1.80D-06 MaxDP=2.95D-05 DE=-9.36D-07 OVMax= 2.19D-05

 Initial convergence to 1.0D-05 achieved.  Increase integral accuracy.
 Cycle   7  Pass 1  IDiag  1:
 E= -152.848711024024     Delta-E=       -0.000001223019 Rises=F Damp=F
 DIIS: error= 1.75D-06 at cycle   1 NSaved=   1.
 NSaved= 1 IEnMin= 1 EnMin= -152.848711024024     IErMin= 1 ErrMin= 1.75D-06
 ErrMax= 1.75D-06 EMaxC= 1.00D-01 BMatC= 2.55D-10 BMatP= 2.55D-10
 IDIUse=1 WtCom= 1.00D+00 WtEn= 0.00D+00
 Coeff-Com:  0.100D+01
 Coeff:      0.100D+01
 Gap=     0.308 Goal=   None    Shift=    0.000
 RMSDP=1.80D-06 MaxDP=2.95D-05 DE=-1.22D-06 OVMax= 5.35D-06

 Cycle   8  Pass 1  IDiag  1:
 E= -152.848711024233     Delta-E=       -0.000000000209 Rises=F Damp=F
 DIIS: error= 6.95D-07 at cycle   2 NSaved=   2.
 NSaved= 2 IEnMin= 2 EnMin= -152.848711024233     IErMin= 2 ErrMin= 6.95D-07
 ErrMax= 6.95D-07 EMaxC= 1.00D-01 BMatC= 2.74D-11 BMatP= 2.55D-10
 IDIUse=1 WtCom= 1.00D+00 WtEn= 0.00D+00
 Coeff-Com:  0.141D+00 0.859D+00
 Coeff:      0.141D+00 0.859D+00
 Gap=     0.308 Goal=   None    Shift=    0.000
 RMSDP=1.30D-07 MaxDP=1.69D-06 DE=-2.09D-10 OVMax= 1.97D-06

 Cycle   9  Pass 1  IDiag  1:
 E= -152.848711024235     Delta-E=       -0.000000000002 Rises=F Damp=F
 DIIS: error= 7.56D-07 at cycle   3 NSaved=   3.
 NSaved= 3 IEnMin= 3 EnMin= -152.848711024235     IErMin= 2 ErrMin= 6.95D-07
 ErrMax= 7.56D-07 EMaxC= 1.00D-01 BMatC= 2.65D-11 BMatP= 2.74D-11
 IDIUse=1 WtCom= 1.00D+00 WtEn= 0.00D+00
 Coeff-Com: -0.136D-01 0.497D+00 0.516D+00
 Coeff:     -0.136D-01 0.497D+00 0.516D+00
 Gap=     0.308 Goal=   None    Shift=    0.000
 RMSDP=6.55D-08 MaxDP=9.42D-07 DE=-1.85D-12 OVMax= 1.00D-06

 Cycle  10  Pass 1  IDiag  1:
 E= -152.848711024253     Delta-E=       -0.000000000018 Rises=F Damp=F
 DIIS: error= 4.65D-08 at cycle   4 NSaved=   4.
 NSaved= 4 IEnMin= 4 EnMin= -152.848711024253     IErMin= 4 ErrMin= 4.65D-08
 ErrMax= 4.65D-08 EMaxC= 1.00D-01 BMatC= 1.41D-13 BMatP= 2.65D-11
 IDIUse=1 WtCom= 1.00D+00 WtEn= 0.00D+00
 Coeff-Com: -0.608D-02 0.123D+00 0.152D+00 0.731D+00
 Coeff:     -0.608D-02 0.123D+00 0.152D+00 0.731D+00
 Gap=     0.308 Goal=   None    Shift=    0.000
 RMSDP=6.20D-09 MaxDP=7.50D-08 DE=-1.84D-11 OVMax= 1.02D-07

 SCF Done:  E(RB3LYP) =  -152.848711024     A.U. after   10 cycles
             Convg  =    0.6204D-08             -V/T =  2.0073
 KE= 1.517472615232D+02 PE=-4.343338351351D+02 EE= 9.320721152236D+01
 Leave Link  502 at Tue Aug 20 23:01:17 2024, MaxMem=   65536000 cpu:      11.3
 (Enter /programs/64bit/g09/g09-gfortran/bin/l601.exe)
 Copying SCF densities to generalized density rwf, IOpCl= 0 IROHF=0.

 **********************************************************************

            Population analysis using the SCF density.

 **********************************************************************

 Orbital symmetries:
       Occupied  (A) (A) (A) (A) (A) (A) (A) (A) (A) (A)
       Virtual   (A) (A) (A) (A) (A) (A) (A) (A) (A) (A) (A) (A)
                 (A) (A) (A) (A) (A) (A) (A) (A) (A) (A) (A) (A)
                 (A) (A) (A) (A) (A) (A) (A) (A) (A) (A) (A) (A)
                 (A) (A) (A) (A)
 The electronic state is 1-A.
 Alpha  occ. eigenvalues --  -19.16995 -19.09828  -1.03787  -0.96661  -0.54383
 Alpha  occ. eigenvalues --   -0.50151  -0.41249  -0.33743  -0.31912  -0.26173
 Alpha virt. eigenvalues --    0.04601   0.11729   0.13807   0.24877   0.72700
 Alpha virt. eigenvalues --    0.80081   0.81308   0.84223   0.87819   0.91861
 Alpha virt. eigenvalues --    0.92437   0.98240   0.99040   1.07756   1.15141
 Alpha virt. eigenvalues --    1.40824   1.48315   1.50783   1.55231   1.60752
 Alpha virt. eigenvalues --    1.69311   1.71147   2.22338   2.27403   2.27964
 Alpha virt. eigenvalues --    2.36991   2.45746   2.54664   2.60919   2.67900
 Alpha virt. eigenvalues --    2.69231   2.73396   3.02686   3.09042   3.31124
 Alpha virt. eigenvalues --    3.41899   3.54019   3.59899   3.73093   3.97032
     Molecular Orbital Coefficients:
                           1         2         3         4         5
                           O         O         O         O         O
     Eigenvalues --   -19.16995 -19.09828  -1.03787  -0.96661  -0.54383
   1 1   O  1S         -0.00007   0.99281  -0.00959  -0.21147  -0.00005
   2        2S         -0.00030   0.02609   0.01965   0.46412   0.00004
   3        2PX         0.00008  -0.00042  -0.00428  -0.04361  -0.00057
   4        2PY         0.00002  -0.00063  -0.00238  -0.06003   0.00246
   5        2PZ         0.00002  -0.00089  -0.00337  -0.08494  -0.00112
   6        3S          0.00143   0.01139   0.02040   0.42997   0.00038
   7        3PX        -0.00056  -0.00049  -0.00325  -0.01782  -0.00038
   8        3PY        -0.00003  -0.00015  -0.00066  -0.01981   0.00337
   9        3PZ        -0.00005  -0.00022  -0.00094  -0.02794  -0.00185
  10        4XX        -0.00014  -0.00758  -0.00005  -0.00064   0.00002
  11        4YY        -0.00023  -0.00789  -0.00094  -0.00571  -0.00018
  12        4ZZ        -0.00023  -0.00781  -0.00086  -0.00265   0.00007
  13        4XY         0.00002  -0.00001   0.00011   0.00028  -0.00036
  14        4XZ         0.00002  -0.00001   0.00015   0.00043   0.00026
  15        4YZ        -0.00000   0.00012   0.00015   0.00504  -0.00009
  16 2   H  1S         -0.00002   0.00011   0.00595   0.15571  -0.00033
  17        2S          0.00015  -0.00112   0.00122   0.02053  -0.00027
  18        3PX        -0.00001   0.00022  -0.00069  -0.01492  -0.00000
  19        3PY         0.00003  -0.00014   0.00057   0.01159  -0.00005
  20        3PZ         0.00004  -0.00020   0.00080   0.01629   0.00002
  21 3   H  1S         -0.00011   0.00009   0.01233   0.15024   0.00026
  22        2S         -0.00137  -0.00200   0.00090   0.00791  -0.00005
  23        3PX         0.00008  -0.00040   0.00083   0.02448   0.00000
  24        3PY        -0.00001  -0.00002   0.00001   0.00110   0.00081
  25        3PZ        -0.00002  -0.00004   0.00002   0.00172  -0.00047
  26 4   O  1S          0.99281  -0.00003  -0.21009   0.01071  -0.00004
  27        2S          0.02610  -0.00013   0.46534  -0.02637   0.00008
  28        2PX        -0.00073  -0.00004  -0.06404   0.00838   0.00054
  29        2PY         0.00054   0.00000   0.05294  -0.00337   0.44948
  30        2PZ         0.00091   0.00000   0.08962  -0.00570  -0.26538
  31        3S          0.01112   0.00046   0.41701  -0.01805   0.00017
  32        3PX         0.00029   0.00034  -0.01681   0.00834   0.00024
  33        3PY         0.00010  -0.00004   0.01703  -0.00129   0.21877
  34        3PZ         0.00018  -0.00005   0.02897  -0.00217  -0.12910
  35        4XX        -0.00785  -0.00003  -0.00371   0.00058  -0.00002
  36        4YY        -0.00777  -0.00013  -0.00120  -0.00135   0.01931
  37        4ZZ        -0.00781  -0.00013  -0.00100  -0.00134  -0.01931
  38        4XY        -0.00005   0.00001  -0.00280   0.00041  -0.01297
  39        4XZ        -0.00008   0.00002  -0.00473   0.00070   0.00769
  40        4YZ        -0.00005   0.00000   0.00021   0.00001   0.01230
  41 5   H  1S          0.00012   0.00001   0.15607  -0.00966   0.24240
  42        2S         -0.00112   0.00008   0.01537   0.00029   0.14726
  43        3PX        -0.00014  -0.00001   0.00700  -0.00044   0.00869
  44        3PY         0.00028  -0.00004  -0.02429   0.00102  -0.01151
  45        3PZ        -0.00002   0.00000   0.00149  -0.00012  -0.00902
  46 6   H  1S          0.00012   0.00001   0.15611  -0.00967  -0.24239
  47        2S         -0.00111   0.00008   0.01541   0.00029  -0.14746
  48        3PX        -0.00015  -0.00001   0.00706  -0.00045  -0.00871
  49        3PY        -0.00015   0.00003   0.01302  -0.00059   0.00238
  50        3PZ         0.00024  -0.00004  -0.02054   0.00084   0.01441
                           6         7         8         9        10
                           O         O         O         O         O
     Eigenvalues --    -0.50151  -0.41249  -0.33743  -0.31912  -0.26173
   1 1   O  1S          0.00066   0.01864  -0.06663  -0.04503  -0.00003
   2        2S         -0.00026  -0.03034   0.13254   0.08920   0.00013
   3        2PX         0.45604   0.06922   0.12874   0.22521   0.00216
   4        2PY        -0.11862  -0.05042   0.22533   0.18463   0.52173
   5        2PZ        -0.16496  -0.07171   0.31763   0.26371  -0.36937
   6        3S         -0.00567  -0.11645   0.32377   0.19938   0.00001
   7        3PX         0.21477   0.05043   0.09529   0.15790   0.00169
   8        3PY        -0.05534  -0.02916   0.14895   0.13205   0.40750
   9        3PZ        -0.07700  -0.04194   0.20950   0.18897  -0.28844
  10        4XX        -0.01623   0.00127  -0.00852  -0.00724  -0.00002
  11        4YY         0.00608   0.00640  -0.01011  -0.00672  -0.02043
  12        4ZZ         0.01163   0.00880  -0.01916  -0.01454   0.02050
  13        4XY        -0.01024  -0.00128  -0.00638  -0.00816  -0.00880
  14        4XZ        -0.01454  -0.00175  -0.00900  -0.01161   0.00612
  15        4YZ         0.00929   0.00388  -0.01491  -0.01261  -0.00833
  16 2   H  1S          0.24344   0.05618  -0.12036  -0.06264   0.00006
  17        2S          0.15066   0.03892  -0.09999  -0.05419  -0.00004
  18        3PX        -0.00011  -0.00048   0.00942   0.00979   0.00007
  19        3PY         0.00963   0.00070   0.00202   0.00344   0.01736
  20        3PZ         0.01362   0.00099   0.00287   0.00495  -0.01229
  21 3   H  1S         -0.24113  -0.01431  -0.09161  -0.10147   0.00007
  22        2S         -0.14629   0.06324  -0.09079  -0.01060  -0.00014
  23        3PX        -0.01347  -0.00388  -0.00021  -0.00703   0.00006
  24        3PY        -0.00628  -0.00245   0.00586   0.00486   0.01658
  25        3PZ        -0.00901  -0.00368   0.00805   0.00700  -0.01173
  26 4   O  1S          0.00568  -0.08492  -0.01554  -0.00518   0.00010
  27        2S         -0.00797   0.17399   0.03490   0.01305  -0.00025
  28        2PX        -0.09257   0.31185  -0.30410   0.42345   0.00084
  29        2PY         0.01973  -0.22507  -0.14699   0.12369  -0.00679
  30        2PZ         0.03150  -0.38088  -0.24851   0.21093   0.00609
  31        3S         -0.03153   0.39149   0.06703   0.02540  -0.00030
  32        3PX        -0.06196   0.19316  -0.23311   0.31246   0.00075
  33        3PY         0.00982  -0.14555  -0.10616   0.09817   0.00129
  34        3PZ         0.01578  -0.24582  -0.18027   0.16694  -0.00006
  35        4XX        -0.00037  -0.01041   0.00992  -0.01723  -0.00005
  36        4YY         0.00177  -0.00881  -0.00376   0.00541   0.00036
  37        4ZZ         0.00263  -0.02235  -0.01299   0.01329  -0.00040
  38        4XY        -0.00262   0.01110  -0.00243   0.00549   0.00083
  39        4XZ        -0.00434   0.01885  -0.00422   0.00923  -0.00058
  40        4YZ         0.00097  -0.01420  -0.00958   0.00824   0.00030
  41 5   H  1S          0.02593  -0.14171  -0.01918  -0.00825  -0.00654
  42        2S          0.01014  -0.10654  -0.01447  -0.01184   0.00652
  43        3PX        -0.00193   0.00632  -0.01037   0.01377  -0.00028
  44        3PY        -0.00196   0.00589  -0.00335   0.00529   0.00023
  45        3PZ         0.00103  -0.01219  -0.00834   0.00668   0.00049
  46 6   H  1S          0.02505  -0.14211  -0.01842  -0.00782   0.00744
  47        2S          0.00986  -0.10685  -0.01498  -0.01230  -0.00675
  48        3PX        -0.00195   0.00628  -0.01034   0.01379   0.00038
  49        3PY         0.00187  -0.01352  -0.00569   0.00326  -0.00015
  50        3PZ        -0.00118  -0.00070  -0.00702   0.00785  -0.00039
                          11        12        13        14        15
                           V         V         V         V         V
     Eigenvalues --     0.04601   0.11729   0.13807   0.24877   0.72700
   1 1   O  1S         -0.02843   0.09407  -0.00021   0.04017  -0.00028
   2        2S          0.04161  -0.11432   0.00013  -0.09314   0.00628
   3        2PX        -0.06635  -0.05451  -0.00009   0.39269   0.00012
   4        2PY        -0.03092   0.15547  -0.01075  -0.04373   0.09110
   5        2PZ        -0.04323   0.21925   0.00578  -0.05958  -0.05790
   6        3S          0.32258  -1.18061   0.00338  -0.44298  -0.00875
   7        3PX        -0.07842  -0.11547  -0.00051   0.72573   0.00722
   8        3PY        -0.05615   0.28346  -0.00137  -0.09324  -0.08400
   9        3PZ        -0.07956   0.39983  -0.00008  -0.12742   0.04579
  10        4XX        -0.01052   0.05071  -0.00013   0.00101   0.00226
  11        4YY        -0.01066   0.04204   0.00037   0.00552   0.00211
  12        4ZZ        -0.00865   0.03389  -0.00070   0.00652   0.00160
  13        4XY         0.00185   0.00116  -0.00115  -0.00524   0.00631
  14        4XZ         0.00267   0.00167   0.00069  -0.00738  -0.00203
  15        4YZ         0.00322  -0.01343   0.00033   0.00172  -0.00089
  16 2   H  1S         -0.02420   0.10624   0.00047  -0.06532  -0.01542
  17        2S         -0.20280   1.39490  -0.00326  -0.87337   0.00647
  18        3PX        -0.00184   0.00217  -0.00005   0.00534   0.00012
  19        3PY        -0.00014  -0.00273  -0.00066   0.00156   0.00479
  20        3PZ        -0.00017  -0.00383   0.00051   0.00221  -0.00315
  21 3   H  1S         -0.01792   0.05911  -0.00027   0.15066   0.00403
  22        2S         -0.28866   0.41296  -0.00241   1.66606  -0.00017
  23        3PX         0.00287  -0.00869  -0.00001  -0.00549   0.00027
  24        3PY         0.00041   0.00032  -0.00045  -0.00451  -0.01518
  25        3PZ         0.00060   0.00043   0.00026  -0.00630   0.00797
  26 4   O  1S         -0.10257  -0.01453   0.00020   0.00889   0.00007
  27        2S          0.12859  -0.00699  -0.00030  -0.08978  -0.00005
  28        2PX        -0.10730  -0.11860   0.00024  -0.24687   0.00127
  29        2PY         0.10846   0.03083  -0.35138   0.03776  -0.12737
  30        2PZ         0.18493   0.05421   0.20686   0.06370   0.07671
  31        3S          1.24244   0.29184  -0.00263   0.19617  -0.00064
  32        3PX        -0.19437  -0.12451   0.00009  -0.23774  -0.00128
  33        3PY         0.18948   0.04773  -0.64685   0.04241  -0.22424
  34        3PZ         0.32235   0.08571   0.38098   0.07434   0.13030
  35        4XX        -0.05192  -0.00717   0.00006   0.00472  -0.00038
  36        4YY        -0.04774  -0.01933  -0.00994  -0.03316   0.16436
  37        4ZZ        -0.04211  -0.01661   0.01013  -0.02826  -0.16387
  38        4XY        -0.00511  -0.00233   0.00645  -0.00323  -0.12435
  39        4XZ        -0.00873  -0.00395  -0.00380  -0.00517   0.07353
  40        4YZ         0.00584   0.00278  -0.00643   0.00500   0.10416
  41 5   H  1S         -0.08215  -0.02472   0.11148  -0.03560   0.76722
  42        2S         -0.91613  -0.25121   1.31974  -0.25450  -0.75121
  43        3PX         0.00322  -0.00092  -0.00215  -0.00185  -0.05071
  44        3PY        -0.00883  -0.00500  -0.00005  -0.00923   0.07863
  45        3PZ        -0.00070   0.00008   0.00387   0.00106   0.04412
  46 6   H  1S         -0.08202  -0.02569  -0.11097  -0.03709  -0.76565
  47        2S         -0.92025  -0.25969  -1.31501  -0.25707   0.75121
  48        3PX         0.00324  -0.00092   0.00211  -0.00185   0.05089
  49        3PY         0.00363   0.00247  -0.00344   0.00541  -0.00079
  50        3PZ        -0.00808  -0.00431  -0.00175  -0.00754  -0.09000
                          16        17        18        19        20
                           V         V         V         V         V
     Eigenvalues --     0.80081   0.81308   0.84223   0.87819   0.91861
   1 1   O  1S         -0.00993   0.02817  -0.02346  -0.01593   0.00212
   2        2S          0.05626  -0.11391  -0.25676   0.00551  -0.06342
   3        2PX        -0.14825   0.02831  -0.14692  -0.09127  -0.03045
   4        2PY        -0.01560   0.20324  -0.27113  -0.02234  -0.78548
   5        2PZ        -0.02121   0.27789  -0.40979   0.01799   0.49648
   6        3S         -0.07349   0.23652   0.35361  -0.00105   0.09424
   7        3PX        -0.05452  -0.29792  -0.01662  -0.05426   0.05443
   8        3PY         0.04119  -0.06677   0.30299   0.00742   0.85813
   9        3PZ         0.05636  -0.08699   0.45390  -0.04171  -0.51918
  10        4XX        -0.12458   0.04242  -0.30151  -0.18316  -0.00769
  11        4YY         0.04930  -0.01314  -0.06029   0.05092  -0.03555
  12        4ZZ         0.06403   0.07066  -0.08837   0.05899  -0.01320
  13        4XY        -0.03845  -0.10864   0.00358  -0.02662  -0.00733
  14        4XZ        -0.05522  -0.15295   0.00239  -0.03802  -0.00076
  15        4YZ         0.02487   0.13928  -0.04566   0.01252  -0.00140
  16 2   H  1S          0.22938   0.95811   0.00188   0.08296   0.04200
  17        2S         -0.23332  -0.83549   0.05714  -0.23967  -0.02929
  18        3PX        -0.01900   0.09072  -0.09511  -0.04075   0.00459
  19        3PY        -0.02227  -0.08563   0.03693  -0.02079  -0.00122
  20        3PZ        -0.03148  -0.12072   0.05090  -0.02875   0.00422
  21 3   H  1S         -0.49754  -0.07606  -0.56629  -0.61382   0.06509
  22        2S          0.44161  -0.03693   0.61241   0.68656  -0.03694
  23        3PX         0.08224  -0.06880   0.12785   0.09401   0.00011
  24        3PY         0.01465   0.03936   0.01372   0.00090   0.00154
  25        3PZ         0.02046   0.05632   0.02220  -0.00060   0.00357
  26 4   O  1S         -0.02370  -0.00018   0.00723   0.02799  -0.00085
  27        2S          0.17726   0.00260   0.31668  -0.64690   0.01076
  28        2PX        -0.02550  -0.17804  -0.06072   0.18221   0.00726
  29        2PY         0.28725  -0.14347  -0.25710   0.10825  -0.17091
  30        2PZ         0.49021  -0.23403  -0.42912   0.19244   0.10773
  31        3S         -0.44660   0.06696  -0.49001   1.09704  -0.01687
  32        3PX        -0.09826   0.17086  -0.09897  -0.21044  -0.00239
  33        3PY        -0.25668   0.16902   0.33581  -0.18476   0.31993
  34        3PZ        -0.43852   0.27712   0.56009  -0.32707  -0.19588
  35        4XX         0.07695   0.00810   0.11439  -0.23300   0.00340
  36        4YY        -0.11296   0.02214   0.14480  -0.04806   0.04572
  37        4ZZ        -0.03286   0.01230   0.14415  -0.13788  -0.04546
  38        4XY         0.04886  -0.00440  -0.00725  -0.04054  -0.02388
  39        4XZ         0.08469  -0.00413  -0.01054  -0.06724   0.01597
  40        4YZ         0.08642  -0.00390   0.00321  -0.08947   0.03102
  41 5   H  1S         -0.47450   0.01456  -0.10050   0.53972   0.04407
  42        2S          0.49376  -0.08594  -0.06617  -0.57867  -0.32035
  43        3PX         0.03913  -0.01200  -0.01746  -0.00360  -0.01981
  44        3PY        -0.13673   0.02345   0.04912   0.07879   0.04299
  45        3PZ         0.02722  -0.00297   0.00377  -0.03384   0.01199
  46 6   H  1S         -0.48068   0.00053  -0.10776   0.53305  -0.06114
  47        2S          0.50447  -0.06094  -0.05043  -0.55968   0.34591
  48        3PX         0.04009  -0.01040  -0.01658  -0.00262   0.01981
  49        3PY         0.08990  -0.01365  -0.02018  -0.06735   0.01316
  50        3PZ        -0.10792   0.01591   0.04284   0.05022  -0.04639
                          21        22        23        24        25
                           V         V         V         V         V
     Eigenvalues --     0.92437   0.98240   0.99040   1.07756   1.15141
   1 1   O  1S          0.01943  -0.00427  -0.00019  -0.02413   0.02520
   2        2S         -0.63930   0.35487   0.02182  -0.46402   0.70110
   3        2PX        -0.30425  -0.32434   0.00785  -0.64214  -0.16526
   4        2PY        -0.17642  -0.09966   0.16812   0.27240  -0.06582
   5        2PZ        -0.40890  -0.14239  -0.12317   0.38087  -0.08958
   6        3S          0.95695  -0.54981  -0.03599   1.08221  -1.61044
   7        3PX         0.55955   0.32201  -0.02132   1.47240   0.29136
   8        3PY         0.28925   0.13956  -0.19437  -0.61774   0.16448
   9        3PZ         0.58311   0.19861   0.14649  -0.86374   0.22802
  10        4XX        -0.10562   0.06832   0.00708  -0.25562   0.22249
  11        4YY        -0.24053   0.07551   0.00702  -0.08548   0.17411
  12        4ZZ        -0.21961   0.06826   0.00244  -0.07554   0.17498
  13        4XY        -0.03601  -0.00806  -0.00528  -0.01528  -0.02082
  14        4XZ        -0.05028  -0.01147   0.00661  -0.02251  -0.03026
  15        4YZ         0.03851  -0.01163  -0.00182   0.01664   0.00113
  16 2   H  1S          0.43377  -0.03514  -0.00758  -0.27465   0.04715
  17        2S         -0.40759   0.25864   0.03185  -1.27246   0.34279
  18        3PX         0.04735   0.01237  -0.00152   0.08444   0.02081
  19        3PY         0.00452   0.01319  -0.00298  -0.09275   0.01851
  20        3PZ         0.00643   0.01868   0.00621  -0.13044   0.02551
  21 3   H  1S          0.56058   0.07530  -0.00211  -0.04982   0.07166
  22        2S         -0.20492  -0.27619  -0.02238   0.99409   0.39774
  23        3PX         0.01996   0.03337  -0.00257   0.17035   0.00547
  24        3PY         0.01787   0.01300   0.03162  -0.01174   0.03206
  25        3PZ         0.02366   0.01900  -0.01959  -0.01602   0.04838
  26 4   O  1S         -0.00505   0.01104   0.00019   0.00719  -0.06277
  27        2S         -0.17888  -0.15128  -0.00631   0.04892  -1.22040
  28        2PX         0.19886  -0.81080  -0.02075   0.05481   0.16703
  29        2PY         0.11547   0.04786  -0.72417  -0.07791  -0.13540
  30        2PZ         0.18008   0.04095   0.43331  -0.10772  -0.22721
  31        3S          0.36895  -0.04530   0.00367  -0.09878   3.03364
  32        3PX        -0.17500   1.08941   0.03143  -0.23123  -0.55757
  33        3PY        -0.14290  -0.16834   1.49753   0.13743   0.40322
  34        3PZ        -0.21240  -0.20410  -0.89800   0.18016   0.67762
  35        4XX        -0.06269  -0.12650  -0.00457   0.05434  -0.21511
  36        4YY        -0.05779  -0.02623   0.06782   0.01955  -0.46513
  37        4ZZ        -0.06595  -0.03557  -0.07105   0.03618  -0.33592
  38        4XY         0.00097   0.01431  -0.04950  -0.01143   0.01753
  39        4XZ        -0.00026   0.02138   0.03029  -0.01813   0.03083
  40        4YZ        -0.01299  -0.01455   0.04330   0.01416   0.13520
  41 5   H  1S          0.06296   0.14461  -0.12134  -0.05853  -0.31967
  42        2S         -0.05888   0.20775  -0.98363  -0.08722  -0.69625
  43        3PX        -0.00030   0.05422  -0.05350  -0.01161  -0.05221
  44        3PY        -0.00343  -0.04294   0.15678   0.01697   0.01550
  45        3PZ        -0.00901  -0.01795   0.00423   0.01739   0.08335
  46 6   H  1S          0.06577   0.13949   0.13208  -0.04777  -0.31923
  47        2S         -0.08364   0.16161   0.99298  -0.06980  -0.69406
  48        3PX        -0.00176   0.05174   0.05670  -0.01055  -0.05200
  49        3PY        -0.00723   0.00168   0.07171   0.01020   0.06586
  50        3PZ        -0.00394  -0.03960  -0.14201   0.02065   0.05355
                          26        27        28        29        30
                           V         V         V         V         V
     Eigenvalues --     1.40824   1.48315   1.50783   1.55231   1.60752
   1 1   O  1S         -0.05523  -0.00486  -0.00012   0.00010  -0.02141
   2        2S         -1.07445  -0.06495   0.00052   0.00175  -0.24806
   3        2PX         0.26628   0.00455  -0.00125  -0.00040   0.02597
   4        2PY         0.04567   0.01623   0.00820   0.00215   0.02104
   5        2PZ         0.06695   0.02595  -0.00420  -0.00194   0.02989
   6        3S          2.86933   0.17902  -0.00025  -0.00466   0.65989
   7        3PX        -0.88129  -0.01005   0.00304   0.00116  -0.15310
   8        3PY        -0.16447  -0.04988  -0.01640  -0.01041  -0.22291
   9        3PZ        -0.23899  -0.07645   0.00699   0.00881  -0.31566
  10        4XX        -0.38352  -0.01385   0.00009   0.00399   0.08104
  11        4YY        -0.21451  -0.01365   0.01847  -0.23913  -0.00431
  12        4ZZ        -0.22898  -0.02960  -0.01908   0.23642  -0.30253
  13        4XY         0.09446   0.00925  -0.05228   0.49219  -0.25409
  14        4XZ         0.13052  -0.00319   0.03635  -0.34985  -0.36066
  15        4YZ        -0.02587  -0.03420   0.00546  -0.09406  -0.48528
  16 2   H  1S         -0.13557  -0.04031  -0.00133   0.00060  -0.20130
  17        2S         -0.08014  -0.02918  -0.00194   0.00017  -0.13793
  18        3PX        -0.10511   0.00381   0.00066   0.00131   0.24516
  19        3PY        -0.03024   0.00566  -0.02878   0.28968   0.09556
  20        3PZ        -0.04418  -0.00041   0.02098  -0.20505   0.13597
  21 3   H  1S          0.00776  -0.00315  -0.00084  -0.00015  -0.21380
  22        2S         -1.78166  -0.05775   0.00339   0.00263  -0.02532
  23        3PX        -0.11506  -0.00865   0.00025  -0.00077  -0.01111
  24        3PY        -0.04734   0.01427   0.04319  -0.27007   0.15943
  25        3PZ        -0.06551   0.03409  -0.02815   0.19067   0.22523
  26 4   O  1S         -0.04742  -0.02977  -0.00010   0.00062  -0.00005
  27        2S         -0.75651  -0.33827  -0.00096   0.00669   0.02441
  28        2PX        -0.24006   0.02196   0.00046  -0.00030   0.01158
  29        2PY        -0.02053  -0.02086   0.00455  -0.02494   0.00829
  30        2PZ        -0.03660  -0.03421  -0.00330   0.01852   0.01004
  31        3S          1.77969   0.95721   0.00318  -0.01925  -0.04294
  32        3PX         0.38350  -0.28007  -0.00207   0.00513  -0.04734
  33        3PY         0.06383   0.22444  -0.01039   0.03897  -0.04072
  34        3PZ         0.11197   0.37745   0.00955  -0.03564  -0.06210
  35        4XX        -0.42974  -0.09590   0.00189   0.00143  -0.18345
  36        4YY        -0.23118   0.06888   0.28388   0.01478   0.04480
  37        4ZZ        -0.02070  -0.27326  -0.28659  -0.01033   0.14121
  38        4XY         0.07692   0.26753   0.49427   0.05745   0.02372
  39        4XZ         0.12745   0.45597  -0.28864  -0.04523   0.04324
  40        4YZ         0.22280  -0.36305   0.17913   0.01396   0.10121
  41 5   H  1S         -0.16722  -0.24067   0.00161  -0.00101   0.02105
  42        2S         -0.12483  -0.16451   0.00329  -0.00585   0.00172
  43        3PX         0.09767   0.13760   0.28504   0.03722   0.05391
  44        3PY         0.00700   0.06514   0.09358   0.01447   0.01605
  45        3PZ         0.11173  -0.27142   0.16025   0.01236   0.04843
  46 6   H  1S         -0.16826  -0.24036  -0.00398   0.01064   0.02099
  47        2S         -0.12476  -0.16420  -0.00511   0.01245  -0.00153
  48        3PX         0.09671   0.13909  -0.28439  -0.04256   0.05636
  49        3PY         0.09344  -0.26849  -0.09775   0.00294   0.03384
  50        3PZ         0.05955  -0.07275  -0.16081  -0.01750   0.03827
                          31        32        33        34        35
                           V         V         V         V         V
     Eigenvalues --     1.69311   1.71147   2.22338   2.27403   2.27964
   1 1   O  1S          0.00010  -0.03396  -0.00839  -0.00353   0.02171
   2        2S          0.00170  -0.60392  -0.13929  -0.03375   0.22349
   3        2PX        -0.00034   0.09345   0.05850  -0.01131   0.06911
   4        2PY        -0.02055   0.00280   0.02310   0.01424  -0.06339
   5        2PZ         0.01463   0.00475   0.03385   0.01176  -0.09020
   6        3S         -0.00504   1.78745   0.29351   0.08585  -0.56130
   7        3PX         0.00120  -0.61570  -0.05331   0.07426  -0.44510
   8        3PY        -0.15423  -0.11635  -0.07343  -0.06053   0.27599
   9        3PZ         0.10977  -0.16703  -0.10638  -0.05208   0.39184
  10        4XX        -0.00139  -0.23879   0.11367   0.02493  -0.15250
  11        4YY        -0.58863   0.00457  -0.14955  -0.03476   0.27546
  12        4ZZ         0.59110  -0.14288  -0.07648  -0.02574   0.09701
  13        4XY        -0.28309  -0.02420  -0.00317   0.02593   0.08918
  14        4XZ         0.19790  -0.03431   0.00275  -0.04184   0.11070
  15        4YZ        -0.24021  -0.24799   0.11764   0.04970  -0.28884
  16 2   H  1S          0.00036  -0.12611  -0.10964  -0.08113   0.51584
  17        2S         -0.00024   0.07135  -0.03352  -0.02206   0.12984
  18        3PX         0.00085  -0.02063  -0.03561  -0.10073   0.61829
  19        3PY         0.22978  -0.00399   0.00699  -0.01373   0.08768
  20        3PZ        -0.16278  -0.00702   0.01001  -0.02274   0.12704
  21 3   H  1S          0.00005   0.04357  -0.11833  -0.00433   0.02652
  22        2S          0.00409  -1.45907  -0.02027   0.01657  -0.07748
  23        3PX         0.00144  -0.18204   0.09215  -0.02051   0.12795
  24        3PY         0.23939   0.04322   0.04321   0.09475  -0.37955
  25        3PZ        -0.16975   0.05790   0.06447   0.06810  -0.54506
  26 4   O  1S         -0.00007  -0.01807  -0.05048   0.00127  -0.00722
  27        2S          0.00011  -0.40543  -0.60137   0.02008  -0.11278
  28        2PX         0.00065  -0.18095   0.09553  -0.00168   0.01208
  29        2PY         0.01672   0.01542  -0.08420   0.03830  -0.01827
  30        2PZ        -0.01160   0.02342  -0.14282  -0.01377  -0.04230
  31        3S          0.00087   0.85877   1.48300  -0.04610   0.25938
  32        3PX        -0.00293   0.56515  -0.33170   0.00752  -0.04674
  33        3PY        -0.02551   0.06077   0.28726   0.28290   0.10194
  34        3PZ         0.01819   0.10761   0.48437  -0.18869   0.06521
  35        4XX        -0.00105   0.46971  -0.71600   0.01302  -0.07288
  36        4YY         0.00680  -0.25460   0.30151  -0.19116  -0.00458
  37        4ZZ        -0.00598  -0.47741  -0.10047   0.19219  -0.00332
  38        4XY        -0.01027  -0.14169  -0.29164   0.14679  -0.00725
  39        4XZ         0.00994  -0.23574  -0.49697  -0.07358  -0.07074
  40        4YZ         0.00409  -0.23169  -0.41926  -0.10514  -0.09583
  41 5   H  1S         -0.00261  -0.10721  -0.64512   0.03990  -0.08602
  42        2S          0.01359   0.02443  -0.12025  -0.12065  -0.04840
  43        3PX        -0.00986  -0.20231   0.05809  -0.33192  -0.02816
  44        3PY        -0.00407  -0.07481  -0.20167  -0.10909  -0.04798
  45        3PZ         0.00426  -0.10034  -0.00655   0.64122   0.11421
  46 6   H  1S          0.00132  -0.10719  -0.64443  -0.00652  -0.10263
  47        2S         -0.01500   0.02367  -0.12004   0.12914  -0.00304
  48        3PX         0.01249  -0.20040   0.05996   0.32325   0.07581
  49        3PY        -0.00628  -0.05217   0.08921  -0.62261  -0.07675
  50        3PZ         0.00229  -0.11367  -0.18031  -0.20579  -0.05867
                          36        37        38        39        40
                           V         V         V         V         V
     Eigenvalues --     2.36991   2.45746   2.54664   2.60919   2.67900
   1 1   O  1S         -0.04014  -0.00029   0.00465  -0.00004   0.00045
   2        2S         -0.73311  -0.00204   0.13740   0.00210   0.00738
   3        2PX         0.12122   0.00472  -0.32727  -0.00388  -0.00079
   4        2PY         0.07958   0.00853   0.07376   0.00006  -0.02549
   5        2PZ         0.11314  -0.00671   0.10208   0.00213   0.01644
   6        3S          1.78717   0.00682  -0.34206  -0.00446  -0.02140
   7        3PX        -0.71679  -0.01237   0.53167   0.00482   0.00901
   8        3PY        -0.26407  -0.03989  -0.05748  -0.05614  -0.32635
   9        3PZ        -0.37686   0.02893  -0.07741   0.03816   0.23713
  10        4XX         0.28459   0.00853  -0.59842  -0.00727   0.00089
  11        4YY        -0.52061   0.01290   0.25087   0.05251   0.57893
  12        4ZZ        -0.17239  -0.02402   0.37970  -0.04599  -0.57628
  13        4XY        -0.14645   0.09088  -0.30000   0.10755   0.08179
  14        4XZ        -0.19983  -0.05020  -0.42988  -0.07997  -0.05901
  15        4YZ         0.57367   0.00511   0.21676   0.02348   0.23082
  16 2   H  1S         -0.58171   0.00837  -0.41918  -0.00319   0.00287
  17        2S          0.08252  -0.00222   0.16453   0.00159  -0.00162
  18        3PX         0.26560   0.00726  -0.07553   0.00181  -0.00242
  19        3PY         0.22854   0.00182   0.22017   0.03810   0.72580
  20        3PZ         0.32420  -0.00313   0.31056  -0.01960  -0.51970
  21 3   H  1S         -0.56143  -0.01201   0.61372   0.00638   0.00563
  22        2S         -0.81904  -0.00113   0.02830   0.00122   0.01747
  23        3PX         0.18641   0.00685  -0.35292  -0.00324   0.00105
  24        3PY        -0.12906   0.08142  -0.13024   0.15167   0.48194
  25        3PZ        -0.18202  -0.05862  -0.18719  -0.11030  -0.34126
  26 4   O  1S          0.01849   0.00035  -0.02355  -0.00034  -0.00068
  27        2S         -0.17554  -0.00167   0.06087   0.00035   0.00264
  28        2PX        -0.15367  -0.00184   0.08847   0.00131   0.00253
  29        2PY         0.02129  -0.27136  -0.03154   0.01571   0.04059
  30        2PZ         0.03490   0.16060  -0.03862  -0.01086  -0.02871
  31        3S          0.17519   0.00035   0.06288   0.00150  -0.00095
  32        3PX         0.31903   0.00252  -0.12922  -0.00333  -0.02895
  33        3PY        -0.01898   0.48469   0.03199  -0.02339  -0.04915
  34        3PZ        -0.03053  -0.28641   0.03156   0.01416   0.01359
  35        4XX         0.32230   0.00314  -0.20632   0.00090   0.03169
  36        4YY        -0.08993   0.49743   0.01538   0.35146  -0.05941
  37        4ZZ        -0.06595  -0.49751  -0.03257  -0.35596   0.01927
  38        4XY         0.00557  -0.36230  -0.00378   0.62434  -0.09258
  39        4XZ         0.00682   0.21466   0.01720  -0.36872   0.03561
  40        4YZ         0.01673   0.31630  -0.04450   0.22318  -0.05273
  41 5   H  1S          0.01827  -0.56032  -0.03732   0.00925   0.01243
  42        2S          0.02754   0.18094   0.00802  -0.00146  -0.00619
  43        3PX         0.00727   0.05824   0.01322  -0.58835   0.11285
  44        3PY         0.06658  -0.40737  -0.06634  -0.17589   0.08378
  45        3PZ         0.00410   0.12762   0.02816  -0.34118   0.04777
  46 6   H  1S          0.01331   0.56083  -0.02125  -0.00997  -0.00908
  47        2S          0.03021  -0.18143   0.00196   0.00122   0.00329
  48        3PX         0.00792  -0.05819  -0.00095   0.59374  -0.03039
  49        3PY        -0.03033  -0.30891   0.03743   0.21661   0.03207
  50        3PZ         0.05715   0.29677  -0.04069   0.32053  -0.05466
                          41        42        43        44        45
                           V         V         V         V         V
     Eigenvalues --     2.69231   2.73396   3.02686   3.09042   3.31124
   1 1   O  1S          0.00625  -0.00014  -0.00349   0.01017  -0.01528
   2        2S          0.12071  -0.00540   0.07335  -0.07405   0.01159
   3        2PX        -0.01814   0.00127  -0.02611  -0.03449  -0.01710
   4        2PY        -0.00771  -0.00694   0.00870  -0.04150   0.00810
   5        2PZ        -0.01464   0.00533   0.01285  -0.05889   0.01206
   6        3S         -0.34034   0.01398  -0.16100   0.22496   0.11437
   7        3PX         0.16932  -0.00753   0.09674  -0.17913  -0.03387
   8        3PY         0.06030  -0.06306   0.01306  -0.26723   0.02021
   9        3PZ         0.04832   0.04129   0.01924  -0.37857   0.02928
  10        4XX        -0.00831   0.00619  -0.06226  -0.39445   0.02930
  11        4YY         0.00113  -0.20068   0.00789   0.18856  -0.07566
  12        4ZZ         0.05414   0.19367  -0.00287   0.43593  -0.09953
  13        4XY        -0.00745   0.69726  -0.00159   0.39877  -0.02387
  14        4XZ        -0.05979  -0.49214  -0.00659   0.56146  -0.03732
  15        4YZ        -0.07546  -0.07491  -0.01738   0.39845  -0.03732
  16 2   H  1S          0.04171  -0.00168   0.03262  -0.13698   0.02817
  17        2S         -0.02446   0.00105  -0.01388  -0.12640   0.00859
  18        3PX        -0.07930   0.00087  -0.01891   0.75872  -0.06475
  19        3PY        -0.09991  -0.45299   0.01294   0.17417  -0.00509
  20        3PZ        -0.00563   0.32272   0.01932   0.25031  -0.00714
  21 3   H  1S          0.09348  -0.00389   0.06379  -0.13242  -0.04590
  22        2S          0.28146  -0.01219   0.16859  -0.06605  -0.02752
  23        3PX        -0.01991   0.00404  -0.01540  -0.27904  -0.00254
  24        3PY        -0.00712   0.69321  -0.00338   0.45749  -0.05460
  25        3PZ        -0.00274  -0.49004  -0.01084   0.64532  -0.08449
  26 4   O  1S         -0.01249   0.00061   0.00328  -0.03565  -0.24836
  27        2S          0.07445  -0.00595  -0.18528   0.07462   0.22803
  28        2PX         0.03083  -0.00027   0.08286   0.00805  -0.26078
  29        2PY        -0.01807   0.07696  -0.04573   0.02333   0.20109
  30        2PZ        -0.03106  -0.04763  -0.07745   0.02575   0.34113
  31        3S         -0.03976   0.00363   0.19580   0.24595   2.92261
  32        3PX        -0.45728   0.01860  -0.33745  -0.08248  -0.49109
  33        3PY        -0.12373  -0.06021   0.19739  -0.00183   0.39337
  34        3PZ        -0.20985   0.05089   0.33354  -0.00654   0.66650
  35        4XX         0.51313  -0.02197   0.20254  -0.09901  -0.90736
  36        4YY        -0.17294  -0.03809  -0.47917  -0.08490  -0.24641
  37        4ZZ        -0.47583   0.06487   0.22004  -0.11068  -0.41686
  38        4XY        -0.14213  -0.08867  -0.26620  -0.03473  -0.26304
  39        4XZ        -0.23825   0.06835  -0.44784  -0.04611  -0.44857
  40        4YZ        -0.31799  -0.01959   0.73358  -0.01603  -0.17919
  41 5   H  1S          0.03530   0.01085  -0.06707  -0.02769  -0.81933
  42        2S         -0.02127  -0.01623  -0.04940  -0.04364  -0.58440
  43        3PX         0.65450   0.04061   0.42429   0.03330  -0.24043
  44        3PY         0.18841   0.10438   0.03582   0.07016   0.85042
  45        3PZ         0.38544  -0.00236  -0.71282   0.01833  -0.07846
  46 6   H  1S          0.03465  -0.01542  -0.06684  -0.01703  -0.82113
  47        2S         -0.02068   0.01849  -0.04951  -0.03991  -0.58485
  48        3PX         0.65349  -0.09360   0.42335   0.03475  -0.24261
  49        3PY         0.24547   0.03815  -0.64211  -0.01072  -0.47942
  50        3PZ         0.35071  -0.12246  -0.31251   0.05653   0.70790
                          46        47        48        49        50
                           V         V         V         V         V
     Eigenvalues --     3.41899   3.54019   3.59899   3.73093   3.97032
   1 1   O  1S         -0.23336   0.00436  -0.01724   0.28188  -0.34618
   2        2S          0.19054  -0.00267   0.05473  -0.14180  -0.22293
   3        2PX         0.01256   0.00810   0.72296   0.01377   0.11553
   4        2PY        -0.27738  -0.00984  -0.06906  -0.18548   0.18279
   5        2PZ        -0.39156   0.00288  -0.09358  -0.26242   0.25859
   6        3S          2.91690  -0.03964  -0.44930  -1.74393   3.25926
   7        3PX        -0.11373   0.01595   1.44381   0.11903  -0.66038
   8        3PY        -0.45904  -0.00707  -0.20192  -0.06790  -0.00346
   9        3PZ        -0.64902   0.00143  -0.27692  -0.09491  -0.00839
  10        4XX        -0.11622  -0.00149  -1.32499   1.22719  -1.26477
  11        4YY        -0.80963   0.02245   0.29505   0.93384  -1.21247
  12        4ZZ        -0.48628   0.01852   0.49263   1.06816  -1.31972
  13        4XY        -0.31780   0.03488  -0.45766  -0.19617   0.16769
  14        4XZ        -0.44263  -0.02887  -0.65508  -0.27302   0.23608
  15        4YZ         0.53548   0.00655   0.33179   0.22356  -0.17863
  16 2   H  1S         -1.11342  -0.00929  -0.80705  -0.66183   0.52674
  17        2S         -0.62962  -0.00167  -0.49504   0.16073  -0.09100
  18        3PX         0.56322   0.00728   0.35103   0.22621  -0.20461
  19        3PY        -0.57787  -0.00960  -0.32917  -0.32287   0.29904
  20        3PZ        -0.81282   0.00008  -0.46308  -0.45517   0.42100
  21 3   H  1S         -0.50169   0.01420   1.53177  -0.31129   0.14477
  22        2S         -0.66731   0.01650   0.90023   0.14704  -1.32026
  23        3PX        -0.62456   0.01407   1.34901  -0.16840   0.27685
  24        3PY        -0.09802   0.07441   0.17343  -0.07962   0.04112
  25        3PZ        -0.14301  -0.03856   0.25415  -0.11095   0.06049
  26 4   O  1S          0.00915  -0.00091   0.01105  -0.29031  -0.31123
  27        2S         -0.06333   0.00155   0.04809   0.07315  -0.10970
  28        2PX        -0.01340   0.00005  -0.01330   0.16477   0.08575
  29        2PY        -0.00232  -0.63237   0.01441  -0.14836  -0.15308
  30        2PZ         0.00454   0.37221   0.00968  -0.26000  -0.25503
  31        3S          0.02217   0.00387  -0.12375   1.90485   2.33485
  32        3PX         0.11167  -0.00388  -0.12857   0.10184   0.49324
  33        3PY        -0.00691  -1.14882   0.04117  -0.01879  -0.08375
  34        3PZ         0.00041   0.67885   0.03852  -0.05609  -0.12451
  35        4XX         0.04101  -0.00187   0.01294  -0.94399  -0.93648
  36        4YY         0.03146  -0.96213   0.06963  -1.26697  -1.40626
  37        4ZZ         0.03768   0.95321   0.04598  -1.14670  -1.27879
  38        4XY         0.00489   0.70356  -0.01733   0.09725   0.12900
  39        4XZ        -0.00060  -0.41656  -0.01228   0.17718   0.21383
  40        4YZ        -0.00631  -0.60782   0.00539   0.14694   0.12003
  41 5   H  1S         -0.02464   1.23582  -0.04315   0.46900   0.52821
  42        2S          0.05744   0.54537  -0.05835  -0.20609  -0.13797
  43        3PX        -0.00820   0.40795  -0.02000   0.12821   0.10058
  44        3PY        -0.01765  -0.99705   0.06361  -0.42879  -0.50805
  45        3PZ        -0.00479  -0.13851  -0.00652  -0.04472  -0.01786
  46 6   H  1S         -0.03670  -1.23231  -0.01403   0.48986   0.51504
  47        2S          0.05156  -0.54846  -0.04861  -0.19799  -0.14154
  48        3PX        -0.01207  -0.40846  -0.01089   0.13588   0.09735
  49        3PY         0.00006  -0.35891  -0.02938   0.17206   0.22767
  50        3PZ        -0.00739   0.93737   0.03281  -0.41047  -0.44637
     Density Matrix:
                           1         2         3         4         5
   1 1   O  1S          2.07461
   2        2S         -0.17169   0.48584
   3        2PX        -0.01655   0.02919   0.56396
   4        2PY        -0.02454   0.04008   0.03352   0.75459
   5        2PZ        -0.03473   0.05655   0.04603  -0.08834   0.69290
   6        3S         -0.22507   0.52897   0.11419   0.18090   0.25620
   7        3PX        -0.01813   0.03356   0.30011   0.04913   0.06753
   8        3PY        -0.02483   0.04652   0.04681   0.55957  -0.11097
   9        3PZ        -0.03518   0.06577   0.06422  -0.11094   0.48201
  10        4XX        -0.01296  -0.00461  -0.02002  -0.00273  -0.00392
  11        4YY        -0.01102  -0.01002   0.00123  -0.02975   0.00319
  12        4ZZ        -0.01017  -0.01111   0.00067   0.00408  -0.03962
  13        4XY         0.00138  -0.00281  -0.01489  -0.01255   0.00166
  14        4XZ         0.00195  -0.00394  -0.02106   0.00162  -0.01139
  15        4YZ         0.00138  -0.00175  -0.00098  -0.02326  -0.01444
  16 2   H  1S         -0.04165   0.09816   0.15698  -0.15945  -0.22440
  17        2S          0.00892  -0.01956   0.09085  -0.10725  -0.15085
  18        3PX         0.00460  -0.00959   0.00798   0.00980   0.01374
  19        3PY        -0.00574   0.01188   0.01001   0.01654  -0.01498
  20        3PZ        -0.00808   0.01671   0.01405  -0.01499   0.00610
  21 3   H  1S         -0.04310   0.09856  -0.30441  -0.03813  -0.05577
  22        2S          0.00789  -0.02244  -0.15352  -0.01760  -0.02532
  23        3PX        -0.01066   0.02166  -0.01819  -0.00198  -0.00305
  24        3PY        -0.00183   0.00359  -0.00239   0.02335  -0.00372
  25        3PZ        -0.00265   0.00520  -0.00370  -0.00373   0.02068
  26 4   O  1S         -0.00132   0.00119  -0.01190  -0.00185  -0.00273
  27        2S          0.00261  -0.00519   0.03000   0.00559   0.00825
  28        2PX         0.01149  -0.01868   0.07099   0.01000   0.01435
  29        2PY         0.00045  -0.00426   0.00400  -0.00728   0.00186
  30        2PZ         0.00069  -0.00694   0.00708   0.00214  -0.00593
  31        3S          0.00389  -0.00179   0.05214   0.00746   0.01071
  32        3PX         0.00751  -0.01064   0.05036   0.00540   0.00760
  33        3PY         0.00002  -0.00231   0.00541   0.00326   0.00064
  34        3PZ         0.00011  -0.00399   0.00923   0.00087   0.00409
  35        4XX        -0.00039   0.00058  -0.00700  -0.00086  -0.00121
  36        4YY         0.00002  -0.00080   0.00198   0.00141   0.00107
  37        4ZZ         0.00004  -0.00100   0.00209   0.00033   0.00167
  38        4XY         0.00014  -0.00007   0.00100   0.00120  -0.00002
  39        4XZ         0.00025  -0.00015   0.00169   0.00001   0.00124
  40        4YZ         0.00000  -0.00019   0.00014   0.00029  -0.00027
  41 5   H  1S         -0.00085  -0.00078  -0.00542  -0.00876   0.00011
  42        2S         -0.00124   0.00140  -0.01485   0.00486  -0.00880
  43        3PX         0.00042  -0.00081   0.00261   0.00001   0.00062
  44        3PY         0.00014  -0.00032   0.00068   0.00050   0.00031
  45        3PZ         0.00009  -0.00033   0.00012   0.00017  -0.00070
  46 6   H  1S         -0.00097  -0.00053  -0.00527   0.00419  -0.00807
  47        2S         -0.00111   0.00117  -0.01522  -0.01073   0.00123
  48        3PX         0.00041  -0.00080   0.00263   0.00064   0.00022
  49        3PY         0.00001  -0.00014  -0.00023  -0.00058  -0.00046
  50        3PZ         0.00017  -0.00045   0.00064  -0.00026   0.00042
                           6         7         8         9        10
   6        3S          0.68719
   7        3PX         0.09502   0.16603
   8        3PY         0.13947   0.04546   0.42000
   9        3PZ         0.19758   0.06233  -0.11070   0.34254
  10        4XX        -0.00925  -0.01072  -0.00272  -0.00386   0.00090
  11        4YY        -0.01591  -0.00064  -0.02226   0.00386   0.00022
  12        4ZZ        -0.02289  -0.00219   0.00547  -0.02773   0.00030
  13        4XY        -0.00673  -0.00836  -0.01004   0.00099   0.00056
  14        4XZ        -0.00951  -0.01180   0.00094  -0.00933   0.00079
  15        4YZ        -0.01134  -0.00265  -0.01601  -0.00824   0.00014
  16 2   H  1S          0.01538   0.06193  -0.08875  -0.12505  -0.00500
  17        2S         -0.07945   0.03173  -0.06390  -0.08997  -0.00231
  18        3PX        -0.00273   0.00533   0.00608   0.00850  -0.00028
  19        3PY         0.01239   0.00532   0.01409  -0.01006  -0.00041
  20        3PZ         0.01748   0.00743  -0.01007   0.00707  -0.00058
  21 3   H  1S          0.03599  -0.15995  -0.03248  -0.04686   0.01063
  22        2S         -0.06930  -0.07739  -0.01777  -0.02519   0.00663
  23        3PX         0.01919  -0.00932  -0.00112  -0.00175   0.00051
  24        3PY         0.00732  -0.00027   0.01734  -0.00416   0.00003
  25        3PZ         0.01044  -0.00060  -0.00418   0.01439   0.00004
  26 4   O  1S          0.01107  -0.01085  -0.00181  -0.00258  -0.00032
  27        2S         -0.01625   0.02278   0.00480   0.00693  -0.00010
  28        2PX        -0.09505   0.06759   0.01374   0.01988   0.00284
  29        2PY         0.00594  -0.00376  -0.00262   0.00335  -0.00048
  30        2PZ         0.01009  -0.00580   0.00368   0.00031  -0.00082
  31        3S         -0.03576   0.04466   0.00726   0.01009   0.00048
  32        3PX        -0.06414   0.04693   0.00897   0.01289   0.00193
  33        3PY         0.00394   0.00008   0.00426   0.00181  -0.00029
  34        3PZ         0.00612   0.00033   0.00210   0.00633  -0.00049
  35        4XX         0.00230  -0.00475  -0.00101  -0.00142   0.00007
  36        4YY         0.00053   0.00092   0.00111   0.00073  -0.00009
  37        4ZZ         0.00083   0.00067   0.00025   0.00143  -0.00011
  38        4XY        -0.00171   0.00128   0.00095   0.00008   0.00007
  39        4XZ        -0.00298   0.00215   0.00012   0.00108   0.00013
  40        4YZ         0.00040  -0.00025   0.00037  -0.00008  -0.00002
  41 5   H  1S          0.01525  -0.01029  -0.00601  -0.00014  -0.00075
  42        2S          0.01159  -0.01308   0.00393  -0.00751  -0.00018
  43        3PX        -0.00277   0.00214   0.00023   0.00076   0.00006
  44        3PY        -0.00154   0.00091   0.00038   0.00030   0.00006
  45        3PZ         0.00004  -0.00027   0.00022  -0.00035  -0.00002
  46 6   H  1S          0.01563  -0.01001   0.00257  -0.00576  -0.00076
  47        2S          0.01093  -0.01330  -0.00910   0.00091  -0.00017
  48        3PX        -0.00274   0.00216   0.00067   0.00048   0.00006
  49        3PY         0.00076  -0.00068  -0.00035  -0.00022  -0.00005
  50        3PZ        -0.00135   0.00066  -0.00008   0.00043   0.00004
                          11        12        13        14        15
  11        4YY         0.00148
  12        4ZZ         0.00015   0.00256
  13        4XY         0.00045  -0.00014   0.00058
  14        4XZ        -0.00012   0.00056   0.00050   0.00094
  15        4YZ         0.00091   0.00085   0.00035   0.00018   0.00115
  16 2   H  1S          0.00516   0.01225  -0.00248  -0.00352   0.01170
  17        2S          0.00486   0.00950  -0.00101  -0.00144   0.00766
  18        3PX        -0.00016  -0.00058  -0.00029  -0.00040  -0.00069
  19        3PY        -0.00080   0.00071  -0.00058  -0.00018  -0.00013
  20        3PZ         0.00037  -0.00051  -0.00017  -0.00070   0.00042
  21 3   H  1S         -0.00164  -0.00021   0.00788   0.01120   0.00222
  22        2S          0.00095   0.00148   0.00417   0.00592   0.00083
  23        3PX        -0.00039  -0.00029   0.00042   0.00059   0.00015
  24        3PY        -0.00098   0.00012  -0.00031   0.00018  -0.00070
  25        3PZ         0.00005  -0.00128   0.00018  -0.00017  -0.00040
  26 4   O  1S         -0.00082  -0.00077   0.00038   0.00053   0.00008
  27        2S          0.00067   0.00048  -0.00085  -0.00119  -0.00029
  28        2PX         0.00331   0.00277  -0.00195  -0.00276  -0.00086
  29        2PY        -0.00128  -0.00176  -0.00016   0.00015  -0.00010
  30        2PZ        -0.00256  -0.00249   0.00016  -0.00005  -0.00036
  31        3S          0.00235   0.00220  -0.00155  -0.00214  -0.00024
  32        3PX         0.00213   0.00181  -0.00136  -0.00192  -0.00051
  33        3PY        -0.00106  -0.00106  -0.00025  -0.00001  -0.00033
  34        3PZ        -0.00153  -0.00196  -0.00001  -0.00029  -0.00044
  35        4XX        -0.00010  -0.00007   0.00019   0.00027   0.00006
  36        4YY        -0.00009  -0.00009  -0.00008  -0.00007  -0.00008
  37        4ZZ        -0.00012  -0.00023  -0.00003  -0.00009  -0.00008
  38        4XY         0.00006   0.00010  -0.00004  -0.00004  -0.00004
  39        4XZ         0.00017   0.00011  -0.00005  -0.00008  -0.00003
  40        4YZ        -0.00010  -0.00009  -0.00001   0.00001  -0.00002
  41 5   H  1S         -0.00100  -0.00137   0.00018   0.00036   0.00018
  42        2S         -0.00114  -0.00048   0.00023   0.00077  -0.00004
  43        3PX         0.00008   0.00004  -0.00007  -0.00010  -0.00002
  44        3PY         0.00008   0.00008  -0.00002  -0.00004  -0.00002
  45        3PZ        -0.00008  -0.00005   0.00001   0.00001  -0.00000
  46 6   H  1S         -0.00144  -0.00093   0.00028   0.00029  -0.00002
  47        2S         -0.00048  -0.00104   0.00069   0.00049   0.00026
  48        3PX         0.00006   0.00007  -0.00007  -0.00010  -0.00003
  49        3PY        -0.00009  -0.00010   0.00002   0.00002   0.00002
  50        3PZ         0.00005   0.00002  -0.00002  -0.00002  -0.00001
                          16        17        18        19        20
  16 2   H  1S          0.21022
  17        2S          0.11499   0.07514
  18        3PX        -0.00826  -0.00363   0.00082
  19        3PY         0.00747   0.00266  -0.00024   0.00109
  20        3PZ         0.01052   0.00374  -0.00034   0.00026   0.00127
  21 3   H  1S         -0.03731  -0.03825  -0.00815  -0.00223  -0.00322
  22        2S         -0.03847  -0.01952  -0.00219  -0.00299  -0.00422
  23        3PX         0.00157  -0.00255  -0.00087   0.00026   0.00035
  24        3PY        -0.00501  -0.00374   0.00018   0.00053  -0.00047
  25        3PZ        -0.00708  -0.00530   0.00024  -0.00047   0.00021
  26 4   O  1S         -0.00160  -0.00100  -0.00037  -0.00004  -0.00006
  27        2S          0.00296   0.00281   0.00089   0.00023   0.00035
  28        2PX         0.01198   0.01149   0.00211   0.00049   0.00069
  29        2PY         0.00349   0.00417  -0.00011   0.00003   0.00063
  30        2PZ         0.00540   0.00681  -0.00015   0.00072   0.00056
  31        3S          0.00866   0.00509   0.00135   0.00044   0.00064
  32        3PX         0.01091   0.00942   0.00132   0.00049   0.00067
  33        3PY         0.00134   0.00209   0.00007   0.00025   0.00030
  34        3PZ         0.00229   0.00363   0.00013   0.00037   0.00053
  35        4XX        -0.00144  -0.00103  -0.00015  -0.00009  -0.00013
  36        4YY        -0.00035  -0.00006   0.00009   0.00002   0.00001
  37        4ZZ        -0.00019   0.00016   0.00008   0.00001   0.00005
  38        4XY        -0.00002  -0.00002   0.00004   0.00003  -0.00002
  39        4XZ         0.00002   0.00002   0.00007  -0.00002   0.00002
  40        4YZ         0.00015   0.00020  -0.00001   0.00003   0.00002
  41 5   H  1S          0.00104   0.00137  -0.00032  -0.00013   0.00034
  42        2S         -0.00189  -0.00109  -0.00043   0.00014  -0.00026
  43        3PX         0.00048   0.00049   0.00007   0.00001   0.00004
  44        3PY        -0.00012  -0.00005   0.00004  -0.00000  -0.00002
  45        3PZ         0.00029   0.00031  -0.00001   0.00003   0.00001
  46 6   H  1S          0.00065   0.00113  -0.00029   0.00039  -0.00004
  47        2S         -0.00169  -0.00089  -0.00045  -0.00030   0.00004
  48        3PX         0.00047   0.00048   0.00007   0.00004   0.00002
  49        3PY         0.00032   0.00030  -0.00003   0.00001   0.00003
  50        3PZ         0.00006   0.00012   0.00003  -0.00002   0.00001
                          21        22        23        24        25
  21 3   H  1S          0.19952
  22        2S          0.08992   0.06765
  23        3PX         0.01545   0.00403   0.00169
  24        3PY         0.00137   0.00037   0.00017   0.00076
  25        3PZ         0.00207   0.00059   0.00025  -0.00009   0.00070
  26 4   O  1S          0.00141  -0.01240   0.00093   0.00011   0.00019
  27        2S         -0.00663   0.01808  -0.00185  -0.00027  -0.00045
  28        2PX         0.00644   0.11279  -0.00545   0.00023   0.00041
  29        2PY        -0.00072  -0.01018  -0.00054   0.00083   0.00039
  30        2PZ        -0.00120  -0.01664  -0.00089   0.00037   0.00127
  31        3S         -0.00858   0.04647  -0.00277  -0.00053  -0.00091
  32        3PX         0.00575   0.07837  -0.00375   0.00018   0.00032
  33        3PY        -0.00089  -0.00410  -0.00050   0.00070   0.00032
  34        3PZ        -0.00142  -0.00648  -0.00085   0.00030   0.00107
  35        4XX         0.00224  -0.00262   0.00035   0.00000   0.00001
  36        4YY        -0.00144  -0.00107  -0.00012   0.00007   0.00002
  37        4ZZ        -0.00138  -0.00152  -0.00015   0.00001   0.00012
  38        4XY         0.00032   0.00250  -0.00008   0.00001  -0.00000
  39        4XZ         0.00055   0.00423  -0.00013  -0.00000   0.00001
  40        4YZ         0.00004  -0.00051  -0.00003   0.00006   0.00003
  41 5   H  1S         -0.00219  -0.02175   0.00031   0.00022   0.00005
  42        2S          0.00376  -0.01355   0.00077   0.00057  -0.00009
  43        3PX        -0.00010   0.00296  -0.00020   0.00001   0.00001
  44        3PY         0.00002   0.00179  -0.00006  -0.00000   0.00002
  45        3PZ         0.00002  -0.00047  -0.00003   0.00002   0.00003
  46 6   H  1S         -0.00223  -0.02164   0.00033  -0.00008   0.00021
  47        2S          0.00394  -0.01337   0.00078  -0.00036   0.00049
  48        3PX        -0.00011   0.00296  -0.00020   0.00000   0.00001
  49        3PY         0.00001  -0.00128   0.00000   0.00001   0.00002
  50        3PZ         0.00003   0.00134  -0.00006   0.00002   0.00002
                          26        27        28        29        30
  26 4   O  1S          2.07487
  27        2S         -0.17512   0.49928
  28        2PX        -0.02332   0.03974   0.76356
  29        2PY         0.02045  -0.03611   0.04376   0.58569
  30        2PZ         0.03463  -0.06117   0.07455   0.06881   0.66169
  31        3S         -0.22272   0.53171   0.17702  -0.14644  -0.24793
  32        3PX        -0.02169   0.04402   0.54064   0.05480   0.09340
  33        3PY         0.02011  -0.03969   0.05315   0.31987   0.09264
  34        3PZ         0.03394  -0.06696   0.09090   0.09260   0.42202
  35        4XX        -0.01238  -0.00726  -0.02655  -0.00293  -0.00497
  36        4YY        -0.01337  -0.00466   0.00121   0.02371   0.00051
  37        4ZZ        -0.01103  -0.00965   0.00483  -0.00019   0.03932
  38        4XY        -0.00080   0.00125   0.01389  -0.01500   0.00129
  39        4XZ        -0.00137   0.00214   0.02357   0.00129  -0.01358
  40        4YZ         0.00245  -0.00521   0.00376   0.02236   0.01263
  41 5   H  1S         -0.04052   0.09453  -0.10841   0.30300   0.01499
  42        2S          0.01011  -0.02430  -0.07134   0.18361   0.00867
  43        3PX        -0.00416   0.00840   0.02137   0.01209   0.00267
  44        3PY         0.00982  -0.02066   0.01367  -0.01337   0.00103
  45        3PZ         0.00161  -0.00327   0.00273   0.00167   0.02138
  46 6   H  1S         -0.04047   0.09442  -0.10910  -0.13297   0.27252
  47        2S          0.01018  -0.02446  -0.07191  -0.08100   0.16521
  48        3PX        -0.00417   0.00844   0.02133  -0.00354   0.01195
  49        3PY        -0.00332   0.00710  -0.00423   0.01216   0.01569
  50        3PZ         0.00937  -0.01966   0.01336   0.01506  -0.00409
                          31        32        33        34        35
  31        3S          0.66748
  32        3PX         0.12546   0.38695
  33        3PY        -0.10950   0.05291   0.18069
  34        3PZ        -0.18496   0.09038   0.08743   0.27711
  35        4XX        -0.01096  -0.01924  -0.00261  -0.00444   0.00116
  36        4YY        -0.00836   0.00153   0.01287   0.00250   0.00005
  37        4ZZ        -0.01970   0.00540   0.00344   0.02513  -0.00012
  38        4XY         0.00646   0.00927  -0.00746   0.00036  -0.00044
  39        4XZ         0.01097   0.01573   0.00034  -0.00706  -0.00075
  40        4YZ        -0.01186   0.00401   0.01320   0.01005  -0.00018
  41 5   H  1S          0.01502  -0.05948   0.15560   0.02115   0.00165
  42        2S         -0.07377  -0.04350   0.09694   0.01683   0.00223
[...]
          (Kelvin)           2390.61  2436.06  5305.29  5456.40  5582.06
                             5611.09
 
 Zero-point correction=                           0.046179 (Hartree/Particle)
 Thermal correction to Energy=                    0.051200
 Thermal correction to Enthalpy=                  0.052144
 Thermal correction to Gibbs Free Energy=         0.020734
 Sum of electronic and zero-point Energies=           -152.805322
 Sum of electronic and thermal Energies=              -152.800302
 Sum of electronic and thermal Enthalpies=            -152.799357
 Sum of electronic and thermal Free Energies=         -152.830768
 
                     E (Thermal)             CV                S
                      KCal/Mol        Cal/Mol-Kelvin    Cal/Mol-Kelvin
 Total                   32.128             13.882             66.108
 Electronic               0.000              0.000              0.000
 Translational            0.889              2.981             36.674
 Rotational               0.889              2.981             21.109
 Vibrational             30.351              7.920              8.325
 Vibration     1          0.614              1.915              2.830
 Vibration     2          0.626              1.877              2.413
 Vibration     3          0.648              1.807              1.937
 Vibration     4          0.810              1.359              0.793
                       Q            Log10(Q)             Ln(Q)
 Total Bot       0.290512D-09         -9.536836        -21.959375
 Total V=0       0.505893D+12         11.704059         26.949591
 Vib (Bot)       0.373206D-20        -20.428051        -47.037326
 Vib (Bot)    1  0.147296D+01          0.168192          0.387275
 Vib (Bot)    2  0.117056D+01          0.068393          0.157481
 Vib (Bot)    3  0.887271D+00         -0.051944         -0.119605
 Vib (Bot)    4  0.379993D+00         -0.420225         -0.967603
 Vib (V=0)       0.649895D+01          0.812843          1.871640
 Vib (V=0)    1  0.205551D+01          0.312920          0.720525
 Vib (V=0)    2  0.177287D+01          0.248678          0.572602
 Vib (V=0)    3  0.151845D+01          0.181402          0.417693
 Vib (V=0)    4  0.112801D+01          0.052312          0.120454
 Electronic      0.100000D+01          0.000000          0.000000
 Translational   0.849750D+07          6.929291         15.955283
 Rotational      0.916061D+04          3.961924          9.122668
 
                                                             water dimer
                                                             IR Spectrum
 
     33  3  3                                                                11                                                      
     98  7  6                                                                66                                6      4      2 11    
     08  9  8                                                                96                                7      5      2 73    
     00  2  7                                                                32                                2      1      3 28    
 
     XX  X  X                                                                XX                                X      X      X XX    
     XX     X                                                                XX                                X      X      X XX    
     XX     X                                                                XX                                X             X XX    
     XX     X                                                                XX                                X             X XX    
            X                                                                XX                                X             X XX    
            X                                                                X                                 X             X XX    
            X                                                                                                  X             X XX    
            X                                                                                                  X             X XX    
            X                                                                                                  X             X XX    
            X                                                                                                                X XX    
            X                                                                                                                X XX    
            X                                                                                                                X XX    
            X                                                                                                                X XX    
            X                                                                                                                  XX    
            X                                                                                                                  XX    
            X                                                                                                                   X    
            X                                                                                                                   X    
            X                                                                                                                   X    
            X                                                                                                                   X    
            X                                                                                                                   X    
 
 ***** Axes restored to original set *****
 -------------------------------------------------------------------
 Center     Atomic                   Forces (Hartrees/Bohr)
 Number     Number              X              Y              Z
 -------------------------------------------------------------------
      1        8           0.000001376   -0.000009737    0.000001789
      2        1           0.000000463   -0.000003496   -0.000001009
      3        1          -0.000003367    0.000036697    0.000000185
      4        8           0.000004861   -0.000032415    0.000003923
      5        1          -0.000018937    0.000013041    0.000006799
      6        1           0.000015604   -0.000004091   -0.000011687
 -------------------------------------------------------------------
 Cartesian Forces:  Max     0.000036697 RMS     0.000014010
 Force constants in Cartesian coordinates: 
                1             2             3             4             5 
      1  0.517963D+00
      2  0.918246D-02  0.677074D-02
      3 -0.101643D+00  0.324401D-01  0.582953D+00
      4 -0.439782D-01 -0.226957D-02 -0.162420D-01  0.487793D-01
      5  0.146553D-02 -0.288529D-02 -0.322363D-01 -0.707410D-03  0.233687D-02
      6  0.446412D-01 -0.304216D-01 -0.518328D+00 -0.349067D-01  0.316381D-01
      7 -0.465215D+00 -0.687996D-02  0.111806D+00 -0.263458D-02 -0.681039D-03
      8 -0.105973D-01 -0.700429D-02 -0.253504D-03  0.306881D-02  0.660151D-03
      9  0.507697D-01 -0.204005D-02 -0.647616D-01  0.512906D-01  0.565018D-03
     10 -0.828602D-02  0.856868D-04  0.895261D-02 -0.260141D-02 -0.705800D-04
     11 -0.378887D-04  0.443130D-02  0.449263D-05 -0.877576D-04 -0.493622D-03
     12  0.697619D-02 -0.820734D-04 -0.133157D-02  0.459244D-04  0.617020D-04
     13 -0.305198D-03  0.136071D-02 -0.148741D-02  0.204163D-03  0.156000D-03
     14  0.910747D-03 -0.712356D-03 -0.889759D-03  0.144978D-03  0.206023D-03
     15 -0.383997D-03 -0.150059D-02  0.867332D-03 -0.988336D-04  0.750373D-04
     16 -0.177921D-03 -0.147933D-02 -0.138606D-02  0.230662D-03 -0.162499D-03
     17 -0.923587D-03 -0.600104D-03  0.934983D-03 -0.149052D-03  0.175872D-03
     18 -0.360173D-03  0.160429D-02  0.601141D-03 -0.888816D-04 -0.103542D-03
                6             7             8             9            10 
      6  0.532963D+00
      7 -0.950869D-02  0.467889D+00
      8 -0.124244D-02  0.737137D-02  0.129740D-01
      9 -0.151100D-01 -0.101493D+00  0.147725D-02  0.859590D-01
     10 -0.677877D-05 -0.418710D-03 -0.148750D-03 -0.696652D-02  0.679634D-01
     11  0.648998D-04  0.177673D-03 -0.761173D-02  0.612546D-04 -0.142033D-01
     12  0.590744D-03 -0.146783D-02  0.273610D-03 -0.158338D-02  0.136886D+00
     13 -0.113877D-03  0.381456D-03 -0.356044D-02  0.331969D-02 -0.338300D-01
     14 -0.865975D-04 -0.186767D-02  0.571009D-03  0.192836D-02  0.736908D-01
     15 -0.626121D-04  0.312422D-03  0.322566D-02 -0.252436D-02 -0.813682D-01
     16 -0.105082D-03 -0.186141D-05  0.386626D-02  0.307919D-02 -0.228272D-01
     17  0.477127D-04  0.187963D-02  0.410869D-03 -0.199183D-02 -0.593538D-01
     18 -0.526641D-04  0.350941D-03 -0.348058D-02 -0.197970D-02 -0.574972D-01
               11            12            13            14            15 
     11  0.671849D+00
     12 -0.877556D-02  0.407909D+00
     13  0.962432D-01 -0.822731D-01  0.325955D-01
     14 -0.306912D+00  0.188352D+00 -0.848373D-01  0.337865D+00
     15  0.246396D+00 -0.224580D+00  0.777094D-01 -0.221000D+00  0.215454D+00
     16 -0.820919D-01 -0.601672D-01  0.954097D-03  0.119585D-01  0.382919D-02
     17 -0.361263D+00 -0.179830D+00 -0.936218D-02 -0.310174D-01 -0.271966D-01
     18 -0.237751D+00 -0.181005D+00  0.284534D-02  0.316952D-01  0.108457D-01
               16            17            18 
     16  0.218222D-01
     17  0.679090D-01  0.392294D+00
     18  0.547500D-01  0.208036D+00  0.171591D+00
 Force constants in internal coordinates: 
                1             2             3             4             5 
      1  0.536707D+00
      2 -0.595953D-02  0.505691D+00
      3 -0.373924D-03  0.132496D-01  0.141707D-01
      4  0.610402D-05 -0.127135D-02  0.116859D-02  0.531676D+00
      5  0.000000D+00 -0.126146D-02  0.118576D-02 -0.645113D-02  0.531463D+00
      6  0.322597D-01  0.284678D-01  0.334005D-02 -0.225888D-03 -0.212915D-03
      7  0.974635D-03  0.171249D-02  0.453971D-03 -0.855429D-03 -0.889842D-03
      8 -0.155681D-03 -0.858249D-03  0.146749D-02  0.182326D-02 -0.727230D-03
      9 -0.171553D-03 -0.826711D-03  0.153744D-02 -0.680293D-03  0.167055D-02
     10 -0.148289D-03 -0.487655D-03  0.513346D-03  0.204305D-01  0.204280D-01
     11  0.102673D-04  0.000000D+00 -0.455413D-05  0.109235D-03 -0.105598D-03
     12 -0.946353D-04 -0.370333D-03  0.462971D-03  0.104436D-01  0.104200D-01
     13  0.993109D-04  0.348616D-03 -0.457787D-03 -0.104272D-01 -0.104186D-01
                6             7             8             9            10 
      6  0.155939D+00
      7  0.673173D-02  0.879534D-02
      8 -0.744902D-03 -0.475495D-02  0.140989D-01
      9 -0.783629D-03 -0.439863D-02 -0.212483D-05  0.142460D-01
     10 -0.172817D-03 -0.812794D-03 -0.691368D-02 -0.691724D-02  0.735881D-01
     11  0.519446D-04  0.384264D-04  0.313741D-03 -0.264884D-03  0.146708D-04
     12 -0.194114D-03 -0.987282D-03 -0.345656D-02 -0.162797D-02  0.364010D-01
     13  0.184703D-03  0.105639D-02  0.166764D-02  0.349784D-02 -0.363769D-01
               11            12            13 
     11  0.124364D-02
     12  0.819690D-03  0.188188D-01
     13  0.797947D-03 -0.174143D-01  0.187858D-01
 Leave Link  716 at Tue Aug 20 23:06:56 2024, MaxMem=   65536000 cpu:       0.1
 (Enter /programs/64bit/g09/g09-gfortran/bin/l103.exe)

 GradGradGradGradGradGradGradGradGradGradGradGradGradGradGradGradGradGrad
 Berny optimization.
 Internal  Forces:  Max     0.000038159 RMS     0.000015077
 Search for a local minimum.
 Step number   1 out of a maximum of    2
 All quantities printed in internal units (Hartrees-Bohrs-Radians)
 Second derivative matrix not updated -- analytic derivatives used.
 The second derivative matrix:
                          R1        R2        R3        R4        R5
           R1           0.53671
           R2          -0.00596   0.50569
           R3          -0.00037   0.01325   0.01417
           R4           0.00001  -0.00127   0.00117   0.53168
           R5          -0.00000  -0.00126   0.00119  -0.00645   0.53146
           A1           0.03226   0.02847   0.00334  -0.00023  -0.00021
           A2           0.00097   0.00171   0.00045  -0.00086  -0.00089
           A3          -0.00016  -0.00086   0.00147   0.00182  -0.00073
           A4          -0.00017  -0.00083   0.00154  -0.00068   0.00167
           A5          -0.00015  -0.00049   0.00051   0.02043   0.02043
           D1           0.00001  -0.00000  -0.00000   0.00011  -0.00011
           D2          -0.00009  -0.00037   0.00046   0.01044   0.01042
           D3           0.00010   0.00035  -0.00046  -0.01043  -0.01042
                          A1        A2        A3        A4        A5
           A1           0.15594
           A2           0.00673   0.00880
           A3          -0.00074  -0.00475   0.01410
           A4          -0.00078  -0.00440  -0.00000   0.01425
           A5          -0.00017  -0.00081  -0.00691  -0.00692   0.07359
           D1           0.00005   0.00004   0.00031  -0.00026   0.00001
           D2          -0.00019  -0.00099  -0.00346  -0.00163   0.03640
           D3           0.00018   0.00106   0.00167   0.00350  -0.03638
                          D1        D2        D3
           D1           0.00124
           D2           0.00082   0.01882
           D3           0.00080  -0.01741   0.01879
     Eigenvalues ---   -0.00001   0.00237   0.00356   0.01336   0.01444
     Eigenvalues ---    0.01833   0.10791   0.15122   0.50786   0.52832
     Eigenvalues ---    0.53803   0.539831000.00000
 Eigenvalue     1 is  -5.53D-06 should be greater than     0.000000 Eigenvector:
                          D1        D2        D3        A3        A4
   1                    0.69088  -0.50530  -0.50471  -0.08100   0.07769
                          A2        R3        R4        R5        A1
   1                   -0.00400   0.00056   0.00025  -0.00021  -0.00009
 Angle between quadratic step and forces=  87.75 degrees.
 Linear search not attempted -- first point.
 Iteration  1 RMS(Cart)=  0.02696921 RMS(Int)=  0.00078137
 Iteration  2 RMS(Cart)=  0.00102230 RMS(Int)=  0.00003972
 Iteration  3 RMS(Cart)=  0.00000195 RMS(Int)=  0.00003966
 Iteration  4 RMS(Cart)=  0.00000000 RMS(Int)=  0.00003966
 Variable       Old X    -DE/DX   Delta X   Delta X   Delta X     New X
                                 (Linear)    (Quad)   (Total)
    R1        1.82245  -0.00000   0.00000  -0.00000  -0.00000   1.82244
    R2        1.83926  -0.00000   0.00000  -0.00001  -0.00001   1.83925
    R3        3.64898   0.00000   0.00000   0.00031   0.00031   3.64929
    R4        1.82704   0.00001   0.00000   0.00008   0.00008   1.82712
    R5        1.82706   0.00001   0.00000  -0.00004  -0.00004   1.82702
    A1        1.81648   0.00000   0.00000   0.00000   0.00000   1.81648
    A2        2.84125  -0.00000   0.00000  -0.00132  -0.00132   2.83993
    A3        1.67212  -0.00004   0.00000  -0.01856  -0.01855   1.65357
    A4        1.67371   0.00004   0.00000   0.01735   0.01736   1.69107
    A5        1.81658   0.00000   0.00000   0.00001   0.00009   1.81667
    D1       -3.11302  -0.00000   0.00000   0.13113   0.13113  -2.98189
    D2        0.89450   0.00000   0.00000  -0.09811  -0.09819   0.79632
    D3       -0.93556  -0.00000   0.00000  -0.09793  -0.09785  -1.03341
         Item               Value     Threshold  Converged?
 Maximum Force            0.000038     0.000450     YES
 RMS     Force            0.000015     0.000300     YES
 Maximum Displacement     0.049898     0.001800     NO 
 RMS     Displacement     0.026989     0.001200     NO 
 Predicted change in Energy=-4.106654D-07
 GradGradGradGradGradGradGradGradGradGradGradGradGradGradGradGradGradGrad

 Leave Link  103 at Tue Aug 20 23:06:56 2024, MaxMem=   65536000 cpu:       0.0
 (Enter /programs/64bit/g09/g09-gfortran/bin/l9999.exe)
 1\1\GINC-MOLMOD\Freq\RB3LYP\6-31G(d,p)\H4O2\OSPITE\20-Aug-2024\0\\#P G
 eom=AllCheck Guess=TCheck SCRF=Check GenChk RB3LYP/6-31G(d,p) Freq\\wa
 ter dimer\\0,1\O,0.0813293565,-0.0272733461,-0.1075331926\H,0.04737059
 53,0.0307518537,0.8545173406\H,1.0327218599,-0.0112006943,-0.312221201
 5\O,2.7160070402,-0.0022467686,-1.2583008179\H,2.488584934,0.723144161
 9,-1.8556671843\H,2.5419434857,-0.7985590021,-1.7782652879\\Version=EM
 64L-G09RevA.02\State=1-A\HF=-152.8515014\RMSD=7.309e-10\RMSF=1.401e-05
 \ZeroPoint=0.0461792\Thermal=0.0511998\Dipole=0.5899828,0.0019473,-0.3
 982184\DipoleDeriv=-0.6195972,0.0119495,0.1617679,0.0081044,-0.7213025
 ,0.0240363,0.0962779,0.0218714,-0.4227606,0.2808241,-0.0054398,-0.0562
 176,-0.0024743,0.3438962,-0.019164,-0.0076713,-0.017646,0.061031,0.424
 0369,-0.0059362,-0.1930823,-0.0049391,0.3025836,-0.0045522,-0.1857863,
 -0.003913,0.353367,-0.782055,-0.0009583,0.2138525,-0.0019266,-0.418396
 5,0.0068824,0.2134331,0.0064488,-0.4335268,0.3455767,0.0409806,-0.0668
 758,0.045285,0.2556967,0.0387409,-0.0632884,0.0742569,0.2149527,0.3512
 146,-0.0405959,-0.0594448,-0.0440494,0.2375225,-0.0459434,-0.0529651,-
 0.0810181,0.2269366\Polar=11.6618819,-0.0888916,10.0972986,-2.2805202,
 0.1282556,13.2636235\PG=C01 [X(H4O2)]\NImag=1\\0.51796262,0.00918246,0
 .00677074,-0.10164292,0.03244007,0.58295267,-0.04397819,-0.00226957,-0
 .01624205,0.04877935,0.00146553,-0.00288529,-0.03223628,-0.00070741,0.
 00233687,0.04464117,-0.03042164,-0.51832801,-0.03490674,0.03163807,0.5
 3296252,-0.46521529,-0.00687996,0.11180583,-0.00263458,-0.00068104,-0.
 00950869,0.46788899,-0.01059726,-0.00700429,-0.00025350,0.00306881,0.0
 0066015,-0.00124244,0.00737137,0.01297399,0.05076973,-0.00204005,-0.06
 476156,0.05129058,0.00056502,-0.01510998,-0.10149267,0.00147725,0.0859
 5897,-0.00828602,0.00008569,0.00895261,-0.00260141,-0.00007058,-0.0000
 0678,-0.00041871,-0.00014875,-0.00696652,0.06796335,-0.00003789,0.0044
 3130,0.00000449,-0.00008776,-0.00049362,0.00006490,0.00017767,-0.00761
 173,0.00006125,-0.01420333,0.67184901,0.00697619,-0.00008207,-0.001331
 57,0.00004592,0.00006170,0.00059074,-0.00146783,0.00027361,-0.00158338
 ,0.13688607,-0.00877556,0.40790916,-0.00030520,0.00136071,-0.00148741,
 0.00020416,0.00015600,-0.00011388,0.00038146,-0.00356044,0.00331969,-0
 .03383001,0.09624325,-0.08227313,0.03259549,0.00091075,-0.00071236,-0.
 00088976,0.00014498,0.00020602,-0.00008660,-0.00186767,0.00057101,0.00
 192836,0.07369079,-0.30691204,0.18835241,-0.08483734,0.33786480,-0.000
 38400,-0.00150059,0.00086733,-0.00009883,0.00007504,-0.00006261,0.0003
 1242,0.00322566,-0.00252436,-0.08136817,0.24639610,-0.22457995,0.07770
 939,-0.22099956,0.21545388,-0.00017792,-0.00147933,-0.00138606,0.00023
 066,-0.00016250,-0.00010508,-0.00000186,0.00386626,0.00307919,-0.02282
 721,-0.08209194,-0.06016722,0.00095410,0.01195851,0.00382919,0.0218222
 3,-0.00092359,-0.00060010,0.00093498,-0.00014905,0.00017587,0.00004771
 ,0.00187963,0.00041087,-0.00199183,-0.05935382,-0.36126292,-0.17983008
 ,-0.00936218,-0.03101743,-0.02719665,0.06790901,0.39229371,-0.00036017
 ,0.00160429,0.00060114,-0.00008888,-0.00010354,-0.00005266,0.00035094,
 -0.00348058,-0.00197970,-0.05749720,-0.23775119,-0.18100500,0.00284534
 ,0.03169515,0.01084570,0.05474998,0.20803587,0.17159052\\-0.00000138,0
 .00000974,-0.00000179,-0.00000046,0.00000350,0.00000101,0.00000337,-0.
 00003670,-0.00000019,-0.00000486,0.00003241,-0.00000392,0.00001894,-0.
 00001304,-0.00000680,-0.00001560,0.00000409,0.00001169\\\@


 WE LEARN WISDOM FROM FAILURE MUCH MORE THAN FROM SUCCESS.
 WE DISCOVER WHAT WILL DO BY FINDING OUT WHAT WILL NOT DO...
 AND HE WHO NEVER MADE A MISTAKE NEVER MADE A DISCOVERY
 Job cpu time:  0 days  0 hours  1 minutes  1.4 seconds.
 File lengths (MBytes):  RWF=      5 Int=      0 D2E=      0 Chk=      1 Scr=      1
 Normal termination of Gaussian 09 at Tue Aug 20 23:06:56 2024.
