 Entering Gaussian System, Link 0=/programs/64bit/g09/g09-gfortran/bin/g09
 Input=h2_aug-cc-pVDZ.com
 Output=h2_aug-cc-pVDZ.log
 Initial command:
 /programs/64bit/g09/g09-gfortran/bin/l1.exe /home/ospite/Desktop/MMfP/Project6/H2/g09/DFT/Gau-12932.inp -scrdir=/home/ospite/Desktop/MMfP/Project6/H2/g09/DFT/
 Entering Link 1 = /programs/64bit/g09/g09-gfortran/bin/l1.exe PID=     12933.
  
 Copyright (c) 1988,1990,1992,1993,1995,1998,2003,2009, Gaussian, Inc.
                  All Rights Reserved.
  
 This is part of the Gaussian(R) 09 program.  It is based on
 the Gaussian(R) 03 system (copyright 2003, Gaussian, Inc.),
 the Gaussian(R) 98 system (copyright 1998, Gaussian, Inc.),
 the Gaussian(R) 94 system (copyright 1995, Gaussian, Inc.),
 the Gaussian 92(TM) system (copyright 1992, Gaussian, Inc.),
 the Gaussian 90(TM) system (copyright 1990, Gaussian, Inc.),
 the Gaussian 88(TM) system (copyright 1988, Gaussian, Inc.),
 the Gaussian 86(TM) system (copyright 1986, Carnegie Mellon
 University), and the Gaussian 82(TM) system (copyright 1983,
 Carnegie Mellon University). Gaussian is a federally registered
 trademark of Gaussian, Inc.
  
 This software contains proprietary and confidential information,
 including trade secrets, belonging to Gaussian, Inc.
  
 This software is provided under written license and may be
 used, copied, transmitted, or stored only in accord with that
 written license.
  
 The following legend is applicable only to US Government
 contracts under FAR:
  
                    RESTRICTED RIGHTS LEGEND
  
 Use, reproduction and disclosure by the US Government is
 subject to restrictions as set forth in subparagraphs (a)
 and (c) of the Commercial Computer Software - Restricted
 Rights clause in FAR 52.227-19.
  
 Gaussian, Inc.
 340 Quinnipiac St., Bldg. 40, Wallingford CT 06492
  
  
 ---------------------------------------------------------------
 Warning -- This program may not be used in any manner that
 competes with the business of Gaussian, Inc. or will provide
 assistance to any competitor of Gaussian, Inc.  The licensee
 of this program is prohibited from giving any competitor of
 Gaussian, Inc. access to this program.  By using this program,
 the user acknowledges that Gaussian, Inc. is engaged in the
 business of creating and licensing software in the field of
 computational chemistry and represents and warrants to the
 licensee that it is not a competitor of Gaussian, Inc. and that
 it will not use this program in any manner prohibited above.
 ---------------------------------------------------------------
  

 Cite this work as:
 Gaussian 09, Revision A.02,
 M. J. Frisch, G. W. Trucks, H. B. Schlegel, G. E. Scuseria, 
 M. A. Robb, J. R. Cheeseman, G. Scalmani, V. Barone, B. Mennucci, 
 G. A. Petersson, H. Nakatsuji, M. Caricato, X. Li, H. P. Hratchian, 
 A. F. Izmaylov, J. Bloino, G. Zheng, J. L. Sonnenberg, M. Hada, 
 M. Ehara, K. Toyota, R. Fukuda, J. Hasegawa, M. Ishida, T. Nakajima, 
 Y. Honda, O. Kitao, H. Nakai, T. Vreven, J. A. Montgomery, Jr., 
 J. E. Peralta, F. Ogliaro, M. Bearpark, J. J. Heyd, E. Brothers, 
 K. N. Kudin, V. N. Staroverov, R. Kobayashi, J. Normand, 
 K. Raghavachari, A. Rendell, J. C. Burant, S. S. Iyengar, J. Tomasi, 
 M. Cossi, N. Rega, J. M. Millam, M. Klene, J. E. Knox, J. B. Cross, 
 V. Bakken, C. Adamo, J. Jaramillo, R. Gomperts, R. E. Stratmann, 
 O. Yazyev, A. J. Austin, R. Cammi, C. Pomelli, J. W. Ochterski, 
 R. L. Martin, K. Morokuma, V. G. Zakrzewski, G. A. Voth, 
 P. Salvador, J. J. Dannenberg, S. Dapprich, A. D. Daniels, 
 O. Farkas, J. B. Foresman, J. V. Ortiz, J. Cioslowski, 
 and D. J. Fox, Gaussian, Inc., Wallingford CT, 2009.
 
 ******************************************
 Gaussian 09:  EM64L-G09RevA.02 11-Jun-2009
                17-Aug-2024 
 ******************************************
 %mem=100MB
 ----------------------------------------------
 #p b3lyp/aug-cc-pVDZ opt freq pop=full gfinput
 ----------------------------------------------
 1/14=-1,18=20,19=15,26=3,38=1/1,3;
 2/9=110,12=2,17=6,18=5,40=1/2;
 3/5=16,7=10,11=2,16=1,24=10,25=1,30=1,71=1,74=-5/1,2,3;
 4//1;
 5/5=2,38=5/2;
 6/7=3,28=1/1;
 7//1,2,3,16;
 1/14=-1,18=20,19=15/3(2);
 2/9=110/2;
 99//99;
 2/9=110/2;
 3/5=16,7=10,11=2,16=1,25=1,30=1,71=1,74=-5/1,2,3;
 4/5=5,16=3/1;
 5/5=2,38=5/2;
 7//1,2,3,16;
 1/14=-1,18=20,19=15/3(-5);
 2/9=110/2;
 6/7=3,19=2,28=1/1;
 99/9=1/99;
 Leave Link    1 at Sat Aug 17 19:56:12 2024, MaxMem=   13107200 cpu:       0.1
 (Enter /programs/64bit/g09/g09-gfortran/bin/l101.exe)
 --------------------------------------------------------
 hydrogen (moldecule) with and aug-cc-pVDZ basis function
 --------------------------------------------------------
 Symbolic Z-matrix:
 Charge =  0 Multiplicity = 1
 H1
 H2                   1    d
       Variables:
  d                     0.74                     
 
 NAtoms=      2 NQM=      2 NQMF=      0 NMic=      0 NMicF=      0 NTot=      2.
                    Isotopes and Nuclear Properties:
 (Nuclear quadrupole moments (NQMom) in fm**2, nuclear magnetic moments (NMagM)
  in nuclear magnetons)

  Atom         1           2
 IAtWgt=           1           1
 AtmWgt=   1.0078250   1.0078250
 NucSpn=           1           1
 AtZEff=   0.0000000   0.0000000
 NQMom=    0.0000000   0.0000000
 NMagM=    2.7928460   2.7928460
 Leave Link  101 at Sat Aug 17 19:56:12 2024, MaxMem=   13107200 cpu:       0.1
 (Enter /programs/64bit/g09/g09-gfortran/bin/l103.exe)

 GradGradGradGradGradGradGradGradGradGradGradGradGradGradGradGradGradGrad
 Berny optimization.
 Initialization pass.
                           ----------------------------
                           !    Initial Parameters    !
                           ! (Angstroms and Degrees)  !
 --------------------------                            --------------------------
 ! Name  Definition              Value          Derivative Info.                !
 --------------------------------------------------------------------------------
 ! R1    R(1,2)                  0.74           estimate D2E/DX2                !
 --------------------------------------------------------------------------------
 Trust Radius=3.00D-01 FncErr=1.00D-07 GrdErr=1.00D-06
 Number of steps in this run=  20 maximum allowed number of steps= 100.
 GradGradGradGradGradGradGradGradGradGradGradGradGradGradGradGradGradGrad

 Leave Link  103 at Sat Aug 17 19:56:12 2024, MaxMem=   13107200 cpu:       0.0
 (Enter /programs/64bit/g09/g09-gfortran/bin/l202.exe)
                          Input orientation:                          
 ---------------------------------------------------------------------
 Center     Atomic      Atomic             Coordinates (Angstroms)
 Number     Number       Type             X           Y           Z
 ---------------------------------------------------------------------
      1          1           0        0.000000    0.000000    0.000000
      2          1           0        0.000000    0.000000    0.740000
 ---------------------------------------------------------------------
 Stoichiometry    H2
 Framework group  D*H[C*(H.H)]
 Deg. of freedom     1
 Full point group                 D*H     NOp   8
 Largest Abelian subgroup         D2H     NOp   8
 Largest concise Abelian subgroup C2      NOp   2
                         Standard orientation:                         
 ---------------------------------------------------------------------
 Center     Atomic      Atomic             Coordinates (Angstroms)
 Number     Number       Type             X           Y           Z
 ---------------------------------------------------------------------
      1          1           0        0.000000    0.000000    0.370000
      2          1           0        0.000000    0.000000   -0.370000
 ---------------------------------------------------------------------
 Rotational constants (GHZ):      0.0000000   1831.4649389   1831.4649389
 Leave Link  202 at Sat Aug 17 19:56:12 2024, MaxMem=   13107200 cpu:       0.0
 (Enter /programs/64bit/g09/g09-gfortran/bin/l301.exe)
 Standard basis: Aug-CC-pVDZ (5D, 7F)
 Ernie: Thresh=  0.10000D-02 Tol=  0.10000D-05 Strict=F.
 AO basis set in the form of general basis input (Overlap normalization):
      1 0
 S   3 1.00       0.000000000000
      0.1301000000D+02  0.3349872639D-01
      0.1962000000D+01  0.2348008012D+00
      0.4446000000D+00  0.8136829579D+00
 S   1 1.00       0.000000000000
      0.1220000000D+00  0.1000000000D+01
 S   1 1.00       0.000000000000
      0.2974000000D-01  0.1000000000D+01
 P   1 1.00       0.000000000000
      0.7270000000D+00  0.1000000000D+01
 P   1 1.00       0.000000000000
      0.1410000000D+00  0.1000000000D+01
 ****
      2 0
 S   3 1.00       0.000000000000
      0.1301000000D+02  0.3349872639D-01
      0.1962000000D+01  0.2348008012D+00
      0.4446000000D+00  0.8136829579D+00
 S   1 1.00       0.000000000000
      0.1220000000D+00  0.1000000000D+01
 S   1 1.00       0.000000000000
      0.2974000000D-01  0.1000000000D+01
 P   1 1.00       0.000000000000
      0.7270000000D+00  0.1000000000D+01
 P   1 1.00       0.000000000000
      0.1410000000D+00  0.1000000000D+01
 ****

 There are     5 symmetry adapted basis functions of AG  symmetry.
 There are     0 symmetry adapted basis functions of B1G symmetry.
 There are     2 symmetry adapted basis functions of B2G symmetry.
 There are     2 symmetry adapted basis functions of B3G symmetry.
 There are     0 symmetry adapted basis functions of AU  symmetry.
 There are     5 symmetry adapted basis functions of B1U symmetry.
 There are     2 symmetry adapted basis functions of B2U symmetry.
 There are     2 symmetry adapted basis functions of B3U symmetry.
 Integral buffers will be    131072 words long.
 Raffenetti 2 integral format.
 Two-electron integral symmetry is turned on.
    18 basis functions,    22 primitive gaussians,    18 cartesian basis functions
     1 alpha electrons        1 beta electrons
       nuclear repulsion energy         0.7151043359 Hartrees.
 IExCor=  402 DFT=T Ex+Corr=B3LYP ExCW=0 ScaHFX=  0.200000
 ScaDFX=  0.800000  0.720000  1.000000  0.810000 ScalE2=  1.000000  1.000000
 IRadAn=      0 IRanWt=     -1 IRanGd=            0 ICorTp=0
 NAtoms=    2 NActive=    2 NUniq=    1 SFac= 3.00D+00 NAtFMM=   80 NAOKFM=F Big=F
 Leave Link  301 at Sat Aug 17 19:56:12 2024, MaxMem=   13107200 cpu:       0.1
 (Enter /programs/64bit/g09/g09-gfortran/bin/l302.exe)
 NPDir=0 NMtPBC=     1 NCelOv=     1 NCel=       1 NClECP=     1 NCelD=      1
         NCelK=      1 NCelE2=     1 NClLst=     1 CellRange=     0.0.
 One-electron integrals computed using PRISM.
 One-electron integral symmetry used in STVInt
 NBasis=    18 RedAO= T  NBF=     5     0     2     2     0     5     2     2
 NBsUse=    18 1.00D-06 NBFU=     5     0     2     2     0     5     2     2
 Precomputing XC quadrature grid using
 IXCGrd= 2 IRadAn=           0 IRanWt=          -1 IRanGd=           0 AccXCQ= 1.00D-10.
 NRdTot=     128 NPtTot=       16336 NUsed=       17271 NTot=       17303
 NSgBfM=    18    18    18    18    18 NAtAll=     2     2.
 Leave Link  302 at Sat Aug 17 19:56:13 2024, MaxMem=   13107200 cpu:       0.2
 (Enter /programs/64bit/g09/g09-gfortran/bin/l303.exe)
 DipDrv:  MaxL=1.
 Leave Link  303 at Sat Aug 17 19:56:13 2024, MaxMem=   13107200 cpu:       0.0
 (Enter /programs/64bit/g09/g09-gfortran/bin/l401.exe)
 Harris functional with IExCor=  402 diagonalized for initial guess.
 ExpMin= 2.97D-02 ExpMax= 1.30D+01 ExpMxC= 1.30D+01 IAcc=3 IRadAn=         0 AccDes= 0.00D+00
 HarFok:  IExCor=  402 AccDes= 0.00D+00 IRadAn=         0 IDoV= 1
 ScaDFX=  1.000000  1.000000  1.000000  1.000000
 FoFCou: FMM=F IPFlag=           0 FMFlag=      100000 FMFlg1=           0
         NFxFlg=           0 DoJE=T BraDBF=F KetDBF=T FulRan=T
         Omega=  0.000000  0.000000  1.000000  0.000000  0.000000 ICntrl=     500 IOpCl=  0
         NMat0=    1 NMatS0=    1 NMatT0=    0 NMatD0=    1 NMtDS0=    0 NMtDT0=    0
         I1Cent=           4 NGrid=           0.
 Petite list used in FoFCou.
 Harris En= -1.17834051520384    
 Initial guess orbital symmetries:
       Occupied  (SGG)
       Virtual   (SGU) (SGG) (SGU) (PIU) (PIU) (SGG) (PIG) (PIG)
                 (SGU) (SGG) (SGU) (PIU) (PIU) (SGG) (PIG) (PIG)
                 (SGU)
 The electronic state of the initial guess is 1-SGG.
 Leave Link  401 at Sat Aug 17 19:56:13 2024, MaxMem=   13107200 cpu:       0.2
 (Enter /programs/64bit/g09/g09-gfortran/bin/l502.exe)
 Closed shell SCF:
 Requested convergence on RMS density matrix=1.00D-08 within 128 cycles.
 Requested convergence on MAX density matrix=1.00D-06.
 Requested convergence on             energy=1.00D-06.
 No special actions if energy rises.
 Using DIIS extrapolation, IDIIS=  1040.
 Integral symmetry usage will be decided dynamically.
        17240 words used for storage of precomputed grid.
 Keep R1 ints in memory in canonical form, NReq=909671.
 IEnd=       37081 IEndB=       37081 NGot=    13107200 MDV=    13072488
 LenX=    13072488 LenY=    13071606
 Symmetry not used in FoFDir.
 MinBra= 0 MaxBra= 1 Meth= 1.
 IRaf=       0 NMat=   1 IRICut=       1 DoRegI=T DoRafI=F ISym2E= 0 JSym2E=0.

 Cycle   1  Pass 1  IDiag  1:
 E= -1.16889579201758    
 DIIS: error= 1.78D-02 at cycle   1 NSaved=   1.
 NSaved= 1 IEnMin= 1 EnMin= -1.16889579201758     IErMin= 1 ErrMin= 1.78D-02
 ErrMax= 1.78D-02 EMaxC= 1.00D-01 BMatC= 2.42D-03 BMatP= 2.42D-03
 IDIUse=3 WtCom= 8.22D-01 WtEn= 1.78D-01
 Coeff-Com:  0.100D+01
 Coeff-En:   0.100D+01
 Coeff:      0.100D+01
 Gap=     0.434 Goal=   None    Shift=    0.000
 GapD=    0.434 DampG=2.000 DampE=0.500 DampFc=1.0000 IDamp=-1.
 RMSDP=4.26D-03 MaxDP=3.25D-02              OVMax= 6.23D-02

 Cycle   2  Pass 1  IDiag  1:
 E= -1.17354080417338     Delta-E=       -0.004645012156 Rises=F Damp=F
 DIIS: error= 4.02D-03 at cycle   2 NSaved=   2.
 NSaved= 2 IEnMin= 2 EnMin= -1.17354080417338     IErMin= 2 ErrMin= 4.02D-03
 ErrMax= 4.02D-03 EMaxC= 1.00D-01 BMatC= 1.05D-04 BMatP= 2.42D-03
 IDIUse=3 WtCom= 9.60D-01 WtEn= 4.02D-02
 Coeff-Com:  0.170D+00 0.830D+00
 Coeff-En:   0.000D+00 0.100D+01
 Coeff:      0.163D+00 0.837D+00
 Gap=     0.449 Goal=   None    Shift=    0.000
 RMSDP=6.20D-04 MaxDP=4.61D-03 DE=-4.65D-03 OVMax= 1.03D-02

 Cycle   3  Pass 1  IDiag  1:
 E= -1.17373233325125     Delta-E=       -0.000191529078 Rises=F Damp=F
 DIIS: error= 5.45D-05 at cycle   3 NSaved=   3.
 NSaved= 3 IEnMin= 3 EnMin= -1.17373233325125     IErMin= 3 ErrMin= 5.45D-05
 ErrMax= 5.45D-05 EMaxC= 1.00D-01 BMatC= 1.65D-08 BMatP= 1.05D-04
 IDIUse=1 WtCom= 1.00D+00 WtEn= 0.00D+00
 Coeff-Com: -0.110D-01-0.447D-01 0.106D+01
 Coeff:     -0.110D-01-0.447D-01 0.106D+01
 Gap=     0.448 Goal=   None    Shift=    0.000
 RMSDP=1.19D-05 MaxDP=8.94D-05 DE=-1.92D-04 OVMax= 1.22D-04

 Cycle   4  Pass 1  IDiag  1:
 E= -1.17373236423893     Delta-E=       -0.000000030988 Rises=F Damp=F
 DIIS: error= 8.10D-07 at cycle   4 NSaved=   4.
 NSaved= 4 IEnMin= 4 EnMin= -1.17373236423893     IErMin= 4 ErrMin= 8.10D-07
 ErrMax= 8.10D-07 EMaxC= 1.00D-01 BMatC= 4.93D-12 BMatP= 1.65D-08
 IDIUse=1 WtCom= 1.00D+00 WtEn= 0.00D+00
 Coeff-Com:  0.465D-03 0.178D-02-0.425D-01 0.104D+01
 Coeff:      0.465D-03 0.178D-02-0.425D-01 0.104D+01
 Gap=     0.448 Goal=   None    Shift=    0.000
 RMSDP=2.94D-07 MaxDP=1.46D-06 DE=-3.10D-08 OVMax= 3.11D-06

 Cycle   5  Pass 1  IDiag  1:
 E= -1.17373236425239     Delta-E=       -0.000000000013 Rises=F Damp=F
 DIIS: error= 6.63D-08 at cycle   5 NSaved=   5.
 NSaved= 5 IEnMin= 5 EnMin= -1.17373236425239     IErMin= 5 ErrMin= 6.63D-08
 ErrMax= 6.63D-08 EMaxC= 1.00D-01 BMatC= 3.93D-14 BMatP= 4.93D-12
 IDIUse=1 WtCom= 1.00D+00 WtEn= 0.00D+00
 Coeff-Com:  0.409D-06 0.207D-04-0.587D-03-0.443D-01 0.104D+01
 Coeff:      0.409D-06 0.207D-04-0.587D-03-0.443D-01 0.104D+01
 Gap=     0.448 Goal=   None    Shift=    0.000
 RMSDP=1.82D-08 MaxDP=1.08D-07 DE=-1.35D-11 OVMax= 1.92D-07

 Cycle   6  Pass 1  IDiag  1:
 E= -1.17373236425247     Delta-E=       -0.000000000000 Rises=F Damp=F
 DIIS: error= 1.00D-10 at cycle   6 NSaved=   6.
 NSaved= 6 IEnMin= 6 EnMin= -1.17373236425247     IErMin= 6 ErrMin= 1.00D-10
 ErrMax= 1.00D-10 EMaxC= 1.00D-01 BMatC= 5.40D-20 BMatP= 3.93D-14
 IDIUse=1 WtCom= 1.00D+00 WtEn= 0.00D+00
 Coeff-Com:  0.613D-07-0.127D-05 0.370D-04 0.359D-02-0.822D-01 0.108D+01
 Coeff:      0.613D-07-0.127D-05 0.370D-04 0.359D-02-0.822D-01 0.108D+01
 Gap=     0.448 Goal=   None    Shift=    0.000
 RMSDP=2.38D-11 MaxDP=1.15D-10 DE=-7.24D-14 OVMax= 4.07D-10

 SCF Done:  E(RB3LYP) =  -1.17373236425     A.U. after    6 cycles
             Convg  =    0.2382D-10             -V/T =  2.0650
 KE= 1.102062135969D+00 PE=-3.602808154995D+00 EE= 6.119093188415D-01
 Leave Link  502 at Sat Aug 17 19:56:13 2024, MaxMem=   13107200 cpu:       0.2
 (Enter /programs/64bit/g09/g09-gfortran/bin/l601.exe)
 Copying SCF densities to generalized density rwf, IOpCl= 0 IROHF=0.

 **********************************************************************

            Population analysis using the SCF density.

 **********************************************************************

 Orbital symmetries:
       Occupied  (SGG)
       Virtual   (SGU) (SGG) (SGU) (PIU) (PIU) (SGG) (PIG) (PIG)
                 (SGU) (SGG) (SGU) (PIU) (PIU) (SGG) (PIG) (PIG)
                 (SGU)
 The electronic state is 1-SGG.
 Alpha  occ. eigenvalues --   -0.43215
 Alpha virt. eigenvalues --    0.01629   0.02607   0.13257   0.16870   0.16870
 Alpha virt. eigenvalues --    0.31414   0.35714   0.35714   0.45005   0.55362
 Alpha virt. eigenvalues --    1.02224   1.35861   1.35861   1.81002   1.97952
 Alpha virt. eigenvalues --    1.97952   3.37231
     Molecular Orbital Coefficients:
                           1         2         3         4         5
                       (SGG)--O  (SGU)--V  (SGG)--V  (SGU)--V  (PIU)--V
     Eigenvalues --    -0.43215   0.01629   0.02607   0.13257   0.16870
   1 1   H  1S          0.41237   0.11788  -0.11437   0.21793   0.00000
   2        2S          0.16200  -0.43437  -0.27124   7.90787   0.00000
   3        3S          0.01310   3.51128   0.65458  -4.12714   0.00000
   4        4PX         0.00000   0.00000   0.00000   0.00000   0.00000
   5        4PY         0.00000   0.00000   0.00000   0.00000   0.00763
   6        4PZ        -0.01902   0.01345   0.01306   0.04896   0.00000
   7        5PX         0.00000   0.00000   0.00000   0.00000   0.00000
   8        5PY         0.00000   0.00000   0.00000   0.00000   0.51347
   9        5PZ         0.01136   0.22823  -0.02555  -1.49845   0.00000
  10 2   H  1S          0.41237  -0.11788  -0.11437  -0.21793   0.00000
  11        2S          0.16200   0.43437  -0.27124  -7.90787   0.00000
  12        3S          0.01310  -3.51128   0.65458   4.12714   0.00000
  13        4PX         0.00000   0.00000   0.00000   0.00000   0.00000
  14        4PY         0.00000   0.00000   0.00000   0.00000   0.00763
  15        4PZ         0.01902   0.01345  -0.01306   0.04896   0.00000
  16        5PX         0.00000   0.00000   0.00000   0.00000   0.00000
  17        5PY         0.00000   0.00000   0.00000   0.00000   0.51347
  18        5PZ        -0.01136   0.22823   0.02555  -1.49845   0.00000
                           6         7         8         9        10
                       (PIU)--V  (SGG)--V  (PIG)--V  (PIG)--V  (SGU)--V
     Eigenvalues --     0.16870   0.31414   0.35714   0.35714   0.45005
   1 1   H  1S          0.00000  -0.21650   0.00000   0.00000  -0.30496
   2        2S          0.00000   0.87396   0.00000   0.00000  30.44969
   3        3S          0.00000  -0.42841   0.00000   0.00000  -2.80955
   4        4PX         0.00763   0.00000  -0.02640   0.00000   0.00000
   5        4PY         0.00000   0.00000   0.00000  -0.02640   0.00000
   6        4PZ         0.00000  -0.00037   0.00000   0.00000   0.03678
   7        5PX         0.51347   0.00000   1.98957   0.00000   0.00000
   8        5PY         0.00000   0.00000   0.00000   1.98957   0.00000
   9        5PZ         0.00000   1.23791   0.00000   0.00000  -7.70750
  10 2   H  1S          0.00000  -0.21650   0.00000   0.00000   0.30496
  11        2S          0.00000   0.87396   0.00000   0.00000 -30.44969
  12        3S          0.00000  -0.42841   0.00000   0.00000   2.80955
  13        4PX         0.00763   0.00000   0.02640   0.00000   0.00000
  14        4PY         0.00000   0.00000   0.00000   0.02640   0.00000
  15        4PZ         0.00000   0.00037   0.00000   0.00000   0.03678
  16        5PX         0.51347   0.00000  -1.98957   0.00000   0.00000
  17        5PY         0.00000   0.00000   0.00000  -1.98957   0.00000
  18        5PZ         0.00000  -1.23791   0.00000   0.00000  -7.70750
                          11        12        13        14        15
                       (SGG)--V  (SGU)--V  (PIU)--V  (PIU)--V  (SGG)--V
     Eigenvalues --     0.55362   1.02224   1.35861   1.35861   1.81002
   1 1   H  1S          0.80376   0.93054   0.00000   0.00000   0.40458
   2        2S         -0.64821  24.01025   0.00000   0.00000  -0.40316
   3        3S          0.21668  -0.67179   0.00000   0.00000   0.14073
   4        4PX         0.00000   0.00000   0.00000   0.66945   0.00000
   5        4PY         0.00000   0.00000   0.66945   0.00000   0.00000
   6        4PZ        -0.01337   0.46913   0.00000   0.00000   0.76407
   7        5PX         0.00000   0.00000   0.00000  -0.30587   0.00000
   8        5PY         0.00000   0.00000  -0.30587   0.00000   0.00000
   9        5PZ         0.96525  -6.81021   0.00000   0.00000  -0.46084
  10 2   H  1S          0.80376  -0.93054   0.00000   0.00000   0.40458
  11        2S         -0.64821 -24.01025   0.00000   0.00000  -0.40316
  12        3S          0.21668   0.67179   0.00000   0.00000   0.14073
  13        4PX         0.00000   0.00000   0.00000   0.66945   0.00000
  14        4PY         0.00000   0.00000   0.66945   0.00000   0.00000
  15        4PZ         0.01337   0.46913   0.00000   0.00000  -0.76407
  16        5PX         0.00000   0.00000   0.00000  -0.30587   0.00000
  17        5PY         0.00000   0.00000  -0.30587   0.00000   0.00000
  18        5PZ        -0.96525  -6.81021   0.00000   0.00000   0.46084
                          16        17        18
                       (PIG)--V  (PIG)--V  (SGU)--V
     Eigenvalues --     1.97952   1.97952   3.37231
   1 1   H  1S          0.00000   0.00000  -2.61174
   2        2S          0.00000   0.00000   7.88505
   3        3S          0.00000   0.00000  -0.44777
   4        4PX         0.00000   1.06980   0.00000
   5        4PY         1.06980   0.00000   0.00000
   6        4PZ         0.00000   0.00000   2.16228
   7        5PX         0.00000  -0.75210   0.00000
   8        5PY        -0.75210   0.00000   0.00000
   9        5PZ         0.00000   0.00000  -2.13380
  10 2   H  1S          0.00000   0.00000   2.61174
  11        2S          0.00000   0.00000  -7.88505
  12        3S          0.00000   0.00000   0.44777
  13        4PX         0.00000  -1.06980   0.00000
  14        4PY        -1.06980   0.00000   0.00000
  15        4PZ         0.00000   0.00000   2.16228
  16        5PX         0.00000   0.75210   0.00000
  17        5PY         0.75210   0.00000   0.00000
  18        5PZ         0.00000   0.00000  -2.13380
     Density Matrix:
                           1         2         3         4         5
   1 1   H  1S          0.34010
   2        2S          0.13361   0.05249
   3        3S          0.01080   0.00424   0.00034
   4        4PX        -0.00000  -0.00000  -0.00000   0.00000
   5        4PY        -0.00000  -0.00000  -0.00000   0.00000   0.00000
   6        4PZ        -0.01568  -0.00616  -0.00050   0.00000   0.00000
   7        5PX         0.00000   0.00000   0.00000  -0.00000   0.00000
   8        5PY         0.00000   0.00000   0.00000   0.00000  -0.00000
   9        5PZ         0.00937   0.00368   0.00030  -0.00000  -0.00000
  10 2   H  1S          0.34010   0.13361   0.01080  -0.00000  -0.00000
  11        2S          0.13361   0.05249   0.00424  -0.00000  -0.00000
  12        3S          0.01080   0.00424   0.00034  -0.00000  -0.00000
  13        4PX         0.00000   0.00000   0.00000  -0.00000   0.00000
  14        4PY         0.00000   0.00000   0.00000   0.00000  -0.00000
  15        4PZ         0.01568   0.00616   0.00050  -0.00000  -0.00000
  16        5PX        -0.00000  -0.00000  -0.00000   0.00000   0.00000
  17        5PY        -0.00000  -0.00000  -0.00000   0.00000   0.00000
  18        5PZ        -0.00937  -0.00368  -0.00030   0.00000   0.00000
                           6         7         8         9        10
   6        4PZ         0.00072
   7        5PX        -0.00000   0.00000
   8        5PY        -0.00000   0.00000   0.00000
   9        5PZ        -0.00043   0.00000   0.00000   0.00026
  10 2   H  1S         -0.01568   0.00000   0.00000   0.00937   0.34010
  11        2S         -0.00616   0.00000   0.00000   0.00368   0.13361
  12        3S         -0.00050   0.00000   0.00000   0.00030   0.01080
  13        4PX        -0.00000   0.00000   0.00000   0.00000   0.00000
  14        4PY        -0.00000   0.00000   0.00000   0.00000   0.00000
  15        4PZ        -0.00072   0.00000   0.00000   0.00043   0.01568
  16        5PX         0.00000  -0.00000   0.00000  -0.00000  -0.00000
  17        5PY         0.00000   0.00000  -0.00000  -0.00000  -0.00000
  18        5PZ         0.00043  -0.00000  -0.00000  -0.00026  -0.00937
                          11        12        13        14        15
  11        2S          0.05249
  12        3S          0.00424   0.00034
  13        4PX         0.00000   0.00000   0.00000
  14        4PY         0.00000   0.00000   0.00000   0.00000
  15        4PZ         0.00616   0.00050   0.00000   0.00000   0.00072
  16        5PX        -0.00000  -0.00000  -0.00000   0.00000  -0.00000
  17        5PY        -0.00000  -0.00000   0.00000  -0.00000  -0.00000
  18        5PZ        -0.00368  -0.00030  -0.00000  -0.00000  -0.00043
                          16        17        18
  16        5PX         0.00000
  17        5PY         0.00000   0.00000
  18        5PZ         0.00000   0.00000   0.00026
    Full Mulliken population analysis:
                           1         2         3         4         5
   1 1   H  1S          0.34010
   2        2S          0.09150   0.05249
   3        3S          0.00328   0.00300   0.00034
   4        4PX         0.00000   0.00000   0.00000   0.00000
   5        4PY         0.00000   0.00000   0.00000   0.00000   0.00000
   6        4PZ         0.00000   0.00000   0.00000  -0.00000   0.00000
   7        5PX         0.00000   0.00000   0.00000  -0.00000   0.00000
   8        5PY         0.00000   0.00000   0.00000   0.00000  -0.00000
   9        5PZ         0.00000   0.00000   0.00000   0.00000   0.00000
  10 2   H  1S          0.19410   0.07556   0.00311   0.00000   0.00000
  11        2S          0.07556   0.04659   0.00287   0.00000   0.00000
  12        3S          0.00311   0.00287   0.00033   0.00000   0.00000
  13        4PX         0.00000   0.00000   0.00000  -0.00000   0.00000
  14        4PY         0.00000   0.00000   0.00000   0.00000  -0.00000
  15        4PZ         0.00843   0.00101   0.00001   0.00000   0.00000
  16        5PX         0.00000   0.00000   0.00000   0.00000   0.00000
  17        5PY        -0.00000  -0.00000  -0.00000   0.00000   0.00000
  18        5PZ        -0.00451  -0.00157  -0.00003   0.00000  -0.00000
                           6         7         8         9        10
   6        4PZ         0.00072
   7        5PX         0.00000   0.00000
   8        5PY         0.00000   0.00000   0.00000
   9        5PZ        -0.00020  -0.00000   0.00000   0.00026
  10 2   H  1S          0.00843  -0.00000  -0.00000  -0.00451   0.34010
  11        2S          0.00101  -0.00000  -0.00000  -0.00157   0.09150
  12        3S          0.00001  -0.00000  -0.00000  -0.00003   0.00328
  13        4PX         0.00000   0.00000   0.00000  -0.00000   0.00000
  14        4PY         0.00000   0.00000   0.00000  -0.00000   0.00000
  15        4PZ         0.00015  -0.00000  -0.00000   0.00009   0.00000
  16        5PX         0.00000  -0.00000   0.00000   0.00000   0.00000
  17        5PY        -0.00000   0.00000  -0.00000   0.00000   0.00000
  18        5PZ         0.00009   0.00000   0.00000  -0.00016   0.00000
                          11        12        13        14        15
  11        2S          0.05249
  12        3S          0.00300   0.00034
  13        4PX         0.00000   0.00000   0.00000
  14        4PY         0.00000   0.00000   0.00000   0.00000
  15        4PZ         0.00000   0.00000   0.00000   0.00000   0.00072
  16        5PX         0.00000   0.00000  -0.00000   0.00000   0.00000
  17        5PY         0.00000   0.00000   0.00000  -0.00000   0.00000
  18        5PZ         0.00000   0.00000   0.00000   0.00000  -0.00020
                          16        17        18
  16        5PX         0.00000
  17        5PY         0.00000   0.00000
  18        5PZ         0.00000   0.00000   0.00026
     Gross orbital populations:
                           1
   1 1   H  1S          0.71157
   2        2S          0.27145
   3        3S          0.01291
   4        4PX         0.00000
   5        4PY         0.00000
   6        4PZ         0.01021
   7        5PX        -0.00000
   8        5PY        -0.00000
   9        5PZ        -0.00614
  10 2   H  1S          0.71157
  11        2S          0.27145
  12        3S          0.01291
  13        4PX         0.00000
  14        4PY         0.00000
  15        4PZ         0.01021
  16        5PX        -0.00000
  17        5PY        -0.00000
  18        5PZ        -0.00614
          Condensed to atoms (all electrons):
              1          2
     1  H    0.589084   0.410916
     2  H    0.410916   0.589084
 Mulliken atomic charges:
              1
     1  H    0.000000
     2  H    0.000000
 Sum of Mulliken atomic charges =   0.00000
 Mulliken charges with hydrogens summed into heavy atoms:
              1
 Sum of Mulliken charges with hydrogens summed into heavy atoms =   0.00000
 Electronic spatial extent (au):  <R**2>=              5.1951
 Charge=              0.0000 electrons
 Dipole moment (field-independent basis, Debye):
    X=              0.0000    Y=             -0.0000    Z=              0.0000  Tot=              0.0000
 Quadrupole moment (field-independent basis, Debye-Ang):
   XX=             -2.0554   YY=             -2.0554   ZZ=             -1.5616
   XY=             -0.0000   XZ=             -0.0000   YZ=              0.0000
 Traceless Quadrupole moment (field-independent basis, Debye-Ang):
   XX=             -0.1646   YY=             -0.1646   ZZ=              0.3292
   XY=             -0.0000   XZ=             -0.0000   YZ=              0.0000
 Octapole moment (field-independent basis, Debye-Ang**2):
  XXX=             -0.0000  YYY=              0.0000  ZZZ=              0.0000  XYY=             -0.0000
  XXY=              0.0000  XXZ=              0.0000  XZZ=             -0.0000  YZZ=              0.0000
  YYZ=              0.0000  XYZ=              0.0000
 Hexadecapole moment (field-independent basis, Debye-Ang**3):
 XXXX=             -2.1386 YYYY=             -2.1386 ZZZZ=             -3.2262 XXXY=              0.0000
 XXXZ=              0.0000 YYYX=              0.0000 YYYZ=             -0.0000 ZZZX=              0.0000
 ZZZY=             -0.0000 XXYY=             -0.7129 XXZZ=             -0.9068 YYZZ=             -0.9068
 XXYZ=             -0.0000 YYXZ=              0.0000 ZZXY=              0.0000
 N-N= 7.151043359324D-01 E-N=-3.602808154927D+00  KE= 1.102062135969D+00
 Symmetry AG   KE= 1.102062135969D+00
 Symmetry B1G  KE= 0.000000000000D+00
 Symmetry B2G  KE= 3.016498591937D-34
 Symmetry B3G  KE= 3.016498591937D-34
 Symmetry AU   KE= 0.000000000000D+00
 Symmetry B1U  KE= 3.902375381031D-30
 Symmetry B2U  KE= 4.547180930040D-35
 Symmetry B3U  KE= 4.547180930040D-35
 Orbital energies and kinetic energies (alpha):
                                 1                 2
   1         (SGG)--O         -0.432149          0.551031
   2         (SGU)--V          0.016286          0.133603
   3         (SGG)--V          0.026072          0.115077
   4         (SGU)--V          0.132565          0.380966
   5         (PIU)--V          0.168698          0.346605
   6         (PIU)--V          0.168698          0.346605
   7         (SGG)--V          0.314141          0.522011
   8         (PIG)--V          0.357136          0.478895
   9         (PIG)--V          0.357136          0.478895
  10         (SGU)--V          0.450047          0.738182
  11         (SGG)--V          0.553616          1.058496
  12         (SGU)--V          1.022242          1.856116
  13         (PIU)--V          1.358608          1.933099
  14         (PIU)--V          1.358608          1.933099
  15         (SGG)--V          1.810018          2.478823
  16         (PIG)--V          1.979520          2.519790
  17         (PIG)--V          1.979520          2.519790
  18         (SGU)--V          3.372306          4.635929
 Total kinetic energy from orbitals= 1.102062135969D+00
 No NMR shielding tensors so no spin-rotation constants.
 Leave Link  601 at Sat Aug 17 19:56:13 2024, MaxMem=   13107200 cpu:       0.1
 (Enter /programs/64bit/g09/g09-gfortran/bin/l701.exe)
 Compute integral first derivatives.
 ... and contract with generalized density number  0.
 Leave Link  701 at Sat Aug 17 19:56:14 2024, MaxMem=   13107200 cpu:       0.1
 (Enter /programs/64bit/g09/g09-gfortran/bin/l702.exe)
 L702 exits ... SP integral derivatives will be done elsewhere.
 Leave Link  702 at Sat Aug 17 19:56:14 2024, MaxMem=   13107200 cpu:       0.0
 (Enter /programs/64bit/g09/g09-gfortran/bin/l703.exe)
 Compute integral first derivatives, UseDBF=F ICtDFT=           0.
 Integral derivatives from FoFDir, PRISM(SPDF).
 Calling FoFJK, ICntrl=      2127 FMM=F ISym2X=1 I1Cent= 0 IOpClX= 0 NMat=1 NMatS=1 NMatT=0.
 FoFCou: FMM=F IPFlag=           0 FMFlag=      100000 FMFlg1=         800
         NFxFlg=           0 DoJE=F BraDBF=F KetDBF=F FulRan=T
         Omega=  0.000000  0.000000  1.000000  0.000000  0.000000 ICntrl=    2127 IOpCl=  0
         NMat0=    1 NMatS0=    1 NMatT0=    0 NMatD0=    1 NMtDS0=    0 NMtDT0=    0
         I1Cent=           0 NGrid=           0.
 Petite list used in FoFCou.
 Leave Link  703 at Sat Aug 17 19:56:14 2024, MaxMem=   13107200 cpu:       0.1
 (Enter /programs/64bit/g09/g09-gfortran/bin/l716.exe)
 Dipole        = 6.16297582D-32-1.20370622D-34 0.00000000D+00
 ***** Axes restored to original set *****
 -------------------------------------------------------------------
 Center     Atomic                   Forces (Hartrees/Bohr)
 Number     Number              X              Y              Z
 -------------------------------------------------------------------
      1        1           0.000000000    0.000000000   -0.015206728
      2        1          -0.000000000   -0.000000000    0.015206728
 -------------------------------------------------------------------
 Cartesian Forces:  Max     0.015206728 RMS     0.008779609
 Leave Link  716 at Sat Aug 17 19:56:14 2024, MaxMem=   13107200 cpu:       0.0
 (Enter /programs/64bit/g09/g09-gfortran/bin/l103.exe)

 GradGradGradGradGradGradGradGradGradGradGradGradGradGradGradGradGradGrad
 Berny optimization.
 Internal  Forces:  Max     0.015206728 RMS     0.015206728
 Search for a local minimum.
 Step number   1 out of a maximum of   20
 All quantities printed in internal units (Hartrees-Bohrs-Radians)
 RMS Force = .15207D-01 SwitMx=.10000D-02 MixMth= 1
 Mixed Optimization -- RFO/linear search
 Second derivative matrix not updated -- first step.
 The second derivative matrix:
                          R1
           R1           0.39139
     Eigenvalues ---    0.39139
 RFO step:  Lambda=-5.89933515D-04 EMin= 3.91394209D-01
 Linear search not attempted -- first point.
 Iteration  1 RMS(Cart)=  0.02743167 RMS(Int)=  0.00000000
 Iteration  2 RMS(Cart)=  0.00000000 RMS(Int)=  0.00000000
 ClnCor:  largest displacement from symmetrization is 1.19D-18 for atom     1.
 Variable       Old X    -DE/DX   Delta X   Delta X   Delta X     New X
                                 (Linear)    (Quad)   (Total)
    R1        1.39840   0.01521   0.00000   0.03879   0.03879   1.43719
         Item               Value     Threshold  Converged?
 Maximum Force            0.015207     0.000450     NO 
 RMS     Force            0.015207     0.000300     NO 
 Maximum Displacement     0.019397     0.001800     NO 
 RMS     Displacement     0.027432     0.001200     NO 
 Predicted change in Energy=-2.954107D-04
 GradGradGradGradGradGradGradGradGradGradGradGradGradGradGradGradGradGrad

 Leave Link  103 at Sat Aug 17 19:56:14 2024, MaxMem=   13107200 cpu:       0.0
 (Enter /programs/64bit/g09/g09-gfortran/bin/l202.exe)
                          Input orientation:                          
 ---------------------------------------------------------------------
 Center     Atomic      Atomic             Coordinates (Angstroms)
 Number     Number       Type             X           Y           Z
 ---------------------------------------------------------------------
      1          1           0        0.000000    0.000000   -0.010265
      2          1           0        0.000000    0.000000    0.750265
 ---------------------------------------------------------------------
 Stoichiometry    H2
 Framework group  D*H[C*(H.H)]
 Deg. of freedom     1
 Full point group                 D*H     NOp   8
 Largest Abelian subgroup         D2H     NOp   8
 Largest concise Abelian subgroup C2      NOp   2
                         Standard orientation:                         
 ---------------------------------------------------------------------
 Center     Atomic      Atomic             Coordinates (Angstroms)
 Number     Number       Type             X           Y           Z
 ---------------------------------------------------------------------
      1          1           0        0.000000    0.000000    0.380265
      2          1           0        0.000000    0.000000   -0.380265
 ---------------------------------------------------------------------
 Rotational constants (GHZ):      0.0000000   1733.9255936   1733.9255936
 Leave Link  202 at Sat Aug 17 19:56:14 2024, MaxMem=   13107200 cpu:       0.0
 (Enter /programs/64bit/g09/g09-gfortran/bin/l301.exe)
 Standard basis: Aug-CC-pVDZ (5D, 7F)
 Ernie: Thresh=  0.10000D-02 Tol=  0.10000D-05 Strict=F.
 There are     5 symmetry adapted basis functions of AG  symmetry.
 There are     0 symmetry adapted basis functions of B1G symmetry.
 There are     2 symmetry adapted basis functions of B2G symmetry.
 There are     2 symmetry adapted basis functions of B3G symmetry.
 There are     0 symmetry adapted basis functions of AU  symmetry.
 There are     5 symmetry adapted basis functions of B1U symmetry.
 There are     2 symmetry adapted basis functions of B2U symmetry.
 There are     2 symmetry adapted basis functions of B3U symmetry.
 Integral buffers will be    131072 words long.
 Raffenetti 2 integral format.
 Two-electron integral symmetry is turned on.
    18 basis functions,    22 primitive gaussians,    18 cartesian basis functions
     1 alpha electrons        1 beta electrons
       nuclear repulsion energy         0.6958014594 Hartrees.
 IExCor=  402 DFT=T Ex+Corr=B3LYP ExCW=0 ScaHFX=  0.200000
 ScaDFX=  0.800000  0.720000  1.000000  0.810000 ScalE2=  1.000000  1.000000
 IRadAn=      0 IRanWt=     -1 IRanGd=            0 ICorTp=0
 NAtoms=    2 NActive=    2 NUniq=    1 SFac= 3.00D+00 NAtFMM=   80 NAOKFM=F Big=F
 Leave Link  301 at Sat Aug 17 19:56:14 2024, MaxMem=   13107200 cpu:       0.1
 (Enter /programs/64bit/g09/g09-gfortran/bin/l302.exe)
 NPDir=0 NMtPBC=     1 NCelOv=     1 NCel=       1 NClECP=     1 NCelD=      1
         NCelK=      1 NCelE2=     1 NClLst=     1 CellRange=     0.0.
 One-electron integrals computed using PRISM.
 One-electron integral symmetry used in STVInt
 NBasis=    18 RedAO= T  NBF=     5     0     2     2     0     5     2     2
 NBsUse=    18 1.00D-06 NBFU=     5     0     2     2     0     5     2     2
 Precomputing XC quadrature grid using
 IXCGrd= 2 IRadAn=           0 IRanWt=          -1 IRanGd=           0 AccXCQ= 1.00D-10.
 NRdTot=     128 NPtTot=       16336 NUsed=       17271 NTot=       17303
 NSgBfM=    18    18    18    18    18 NAtAll=     2     2.
 Leave Link  302 at Sat Aug 17 19:56:15 2024, MaxMem=   13107200 cpu:       0.2
 (Enter /programs/64bit/g09/g09-gfortran/bin/l303.exe)
 DipDrv:  MaxL=1.
 Leave Link  303 at Sat Aug 17 19:56:15 2024, MaxMem=   13107200 cpu:       0.0
 (Enter /programs/64bit/g09/g09-gfortran/bin/l401.exe)
 Initial guess read from the read-write file.
 B after Tr=     0.000000    0.000000    0.000000
         Rot=    1.000000    0.000000    0.000000    0.000000 Ang=   0.00 deg.
 Guess basis will be translated and rotated to current coordinates.
 Initial guess orbital symmetries:
       Occupied  (SGG)
       Virtual   (SGU) (SGG) (SGU) (PIU) (PIU) (SGG) (PIG) (PIG)
                 (SGU) (SGG) (SGU) (PIU) (PIU) (SGG) (PIG) (PIG)
                 (SGU)
 The electronic state of the initial guess is 1-SGG.
 Leave Link  401 at Sat Aug 17 19:56:15 2024, MaxMem=   13107200 cpu:       0.1
 (Enter /programs/64bit/g09/g09-gfortran/bin/l502.exe)
 Closed shell SCF:
 Requested convergence on RMS density matrix=1.00D-08 within 128 cycles.
 Requested convergence on MAX density matrix=1.00D-06.
 Requested convergence on             energy=1.00D-06.
 No special actions if energy rises.
 Using DIIS extrapolation, IDIIS=  1040.
 Integral symmetry usage will be decided dynamically.
        17240 words used for storage of precomputed grid.
 Keep R1 ints in memory in canonical form, NReq=909671.
 IEnd=       37081 IEndB=       37081 NGot=    13107200 MDV=    13072488
 LenX=    13072488 LenY=    13071606
 Symmetry not used in FoFDir.
 MinBra= 0 MaxBra= 1 Meth= 1.
 IRaf=       0 NMat=   1 IRICut=       1 DoRegI=T DoRafI=F ISym2E= 0 JSym2E=0.

 Cycle   1  Pass 1  IDiag  1:
 E= -1.17397413927017    
 DIIS: error= 1.73D-03 at cycle   1 NSaved=   1.
 NSaved= 1 IEnMin= 1 EnMin= -1.17397413927017     IErMin= 1 ErrMin= 1.73D-03
 ErrMax= 1.73D-03 EMaxC= 1.00D-01 BMatC= 2.78D-05 BMatP= 2.78D-05
 IDIUse=3 WtCom= 9.83D-01 WtEn= 1.73D-02
 Coeff-Com:  0.100D+01
 Coeff-En:   0.100D+01
 Coeff:      0.100D+01
 Gap=     0.452 Goal=   None    Shift=    0.000
 GapD=    0.452 DampG=2.000 DampE=1.000 DampFc=2.0000 IDamp=-1.
 RMSDP=4.47D-04 MaxDP=3.41D-03              OVMax= 6.01D-03

 Cycle   2  Pass 1  IDiag  1:
 E= -1.17402312614002     Delta-E=       -0.000048986870 Rises=F Damp=F
 DIIS: error= 4.06D-04 at cycle   2 NSaved=   2.
 NSaved= 2 IEnMin= 2 EnMin= -1.17402312614002     IErMin= 2 ErrMin= 4.06D-04
 ErrMax= 4.06D-04 EMaxC= 1.00D-01 BMatC= 1.00D-06 BMatP= 2.78D-05
 IDIUse=3 WtCom= 9.96D-01 WtEn= 4.06D-03
 Coeff-Com:  0.153D+00 0.847D+00
 Coeff-En:   0.000D+00 0.100D+01
 Coeff:      0.153D+00 0.847D+00
 Gap=     0.443 Goal=   None    Shift=    0.000
 RMSDP=6.27D-05 MaxDP=4.44D-04 DE=-4.90D-05 OVMax= 1.06D-03

 Cycle   3  Pass 1  IDiag  1:
 E= -1.17402504802650     Delta-E=       -0.000001921886 Rises=F Damp=F
 DIIS: error= 1.42D-05 at cycle   3 NSaved=   3.
 NSaved= 3 IEnMin= 3 EnMin= -1.17402504802650     IErMin= 3 ErrMin= 1.42D-05
 ErrMax= 1.42D-05 EMaxC= 1.00D-01 BMatC= 1.16D-09 BMatP= 1.00D-06
 IDIUse=1 WtCom= 1.00D+00 WtEn= 0.00D+00
 Coeff-Com: -0.156D-01-0.566D-01 0.107D+01
 Coeff:     -0.156D-01-0.566D-01 0.107D+01
 Gap=     0.443 Goal=   None    Shift=    0.000
 RMSDP=4.00D-06 MaxDP=1.98D-05 DE=-1.92D-06 OVMax= 3.59D-05

 Cycle   4  Pass 1  IDiag  1:
 E= -1.17402505043659     Delta-E=       -0.000000002410 Rises=F Damp=F
 DIIS: error= 1.04D-07 at cycle   4 NSaved=   4.
 NSaved= 4 IEnMin= 4 EnMin= -1.17402505043659     IErMin= 4 ErrMin= 1.04D-07
 ErrMax= 1.04D-07 EMaxC= 1.00D-01 BMatC= 1.09D-13 BMatP= 1.16D-09
 IDIUse=1 WtCom= 1.00D+00 WtEn= 0.00D+00
 Coeff-Com:  0.959D-03 0.364D-02-0.688D-01 0.106D+01
 Coeff:      0.959D-03 0.364D-02-0.688D-01 0.106D+01
 Gap=     0.443 Goal=   None    Shift=    0.000
 RMSDP=3.29D-08 MaxDP=1.55D-07 DE=-2.41D-09 OVMax= 3.02D-07

 Cycle   5  Pass 1  IDiag  1:
 E= -1.17402505043677     Delta-E=       -0.000000000000 Rises=F Damp=F
 DIIS: error= 1.29D-09 at cycle   5 NSaved=   5.
 NSaved= 5 IEnMin= 5 EnMin= -1.17402505043677     IErMin= 5 ErrMin= 1.29D-09
 ErrMax= 1.29D-09 EMaxC= 1.00D-01 BMatC= 9.28D-18 BMatP= 1.09D-13
 IDIUse=1 WtCom= 1.00D+00 WtEn= 0.00D+00
 Coeff-Com: -0.101D-03-0.385D-03 0.727D-02-0.110D+00 0.110D+01
 Coeff:     -0.101D-03-0.385D-03 0.727D-02-0.110D+00 0.110D+01
 Gap=     0.443 Goal=   None    Shift=    0.000
 RMSDP=3.13D-10 MaxDP=1.35D-09 DE=-1.77D-13 OVMax= 4.26D-09

 SCF Done:  E(RB3LYP) =  -1.17402505044     A.U. after    5 cycles
             Convg  =    0.3129D-09             -V/T =  2.0820
 KE= 1.085053116104D+00 PE=-3.559626421490D+00 EE= 6.047467955370D-01
 Leave Link  502 at Sat Aug 17 19:56:15 2024, MaxMem=   13107200 cpu:       0.2
 (Enter /programs/64bit/g09/g09-gfortran/bin/l701.exe)
 Compute integral first derivatives.
 ... and contract with generalized density number  0.
 Leave Link  701 at Sat Aug 17 19:56:15 2024, MaxMem=   13107200 cpu:       0.1
 (Enter /programs/64bit/g09/g09-gfortran/bin/l702.exe)
 L702 exits ... SP integral derivatives will be done elsewhere.
 Leave Link  702 at Sat Aug 17 19:56:16 2024, MaxMem=   13107200 cpu:       0.0
 (Enter /programs/64bit/g09/g09-gfortran/bin/l703.exe)
 Compute integral first derivatives, UseDBF=F ICtDFT=           0.
 Integral derivatives from FoFDir, PRISM(SPDF).
 Calling FoFJK, ICntrl=      2127 FMM=F ISym2X=1 I1Cent= 0 IOpClX= 0 NMat=1 NMatS=1 NMatT=0.
 FoFCou: FMM=F IPFlag=           0 FMFlag=      100000 FMFlg1=         800
         NFxFlg=           0 DoJE=F BraDBF=F KetDBF=F FulRan=T
         Omega=  0.000000  0.000000  1.000000  0.000000  0.000000 ICntrl=    2127 IOpCl=  0
         NMat0=    1 NMatS0=    1 NMatT0=    0 NMatD0=    1 NMtDS0=    0 NMtDT0=    0
         I1Cent=           0 NGrid=           0.
 Petite list used in FoFCou.
 Leave Link  703 at Sat Aug 17 19:56:16 2024, MaxMem=   13107200 cpu:       0.1
 (Enter /programs/64bit/g09/g09-gfortran/bin/l716.exe)
 Dipole        =-1.35585468D-31-4.81482486D-35 0.00000000D+00
 ***** Axes restored to original set *****
 -------------------------------------------------------------------
 Center     Atomic                   Forces (Hartrees/Bohr)
 Number     Number              X              Y              Z
 -------------------------------------------------------------------
      1        1           0.000000000    0.000000000   -0.000202425
      2        1          -0.000000000   -0.000000000    0.000202425
 -------------------------------------------------------------------
 Cartesian Forces:  Max     0.000202425 RMS     0.000116870
 Leave Link  716 at Sat Aug 17 19:56:16 2024, MaxMem=   13107200 cpu:       0.0
 (Enter /programs/64bit/g09/g09-gfortran/bin/l103.exe)

 GradGradGradGradGradGradGradGradGradGradGradGradGradGradGradGradGradGrad
 Berny optimization.
 Using GEDIIS/GDIIS optimizer.
 Internal  Forces:  Max     0.000202425 RMS     0.000202425
 Search for a local minimum.
 Step number   2 out of a maximum of   20
 All quantities printed in internal units (Hartrees-Bohrs-Radians)
 RMS Force = .20243D-03 SwitMx=.10000D-02 MixMth= 2
 Mixed Optimization -- En-DIIS/RFO-DIIS
 Update second derivatives using D2CorX and points    1    2
 DE= -2.93D-04 DEPred=-2.95D-04 R= 9.91D-01
 SS=  1.41D+00  RLast= 3.88D-02 DXNew= 5.0454D-01 1.1638D-01
 Trust test= 9.91D-01 RLast= 3.88D-02 DXMaxT set to 3.00D-01
 The second derivative matrix:
                          R1
           R1           0.38677
 Use linear search instead of GDIIS.
     Eigenvalues ---    0.38677
 RFO step:  Lambda= 0.00000000D+00 EMin= 3.86766221D-01
 Quartic linear search produced a step of  0.01442.
 Iteration  1 RMS(Cart)=  0.00039547 RMS(Int)=  0.00000000
 Iteration  2 RMS(Cart)=  0.00000000 RMS(Int)=  0.00000000
 ClnCor:  largest displacement from symmetrization is 1.71D-20 for atom     1.
 Variable       Old X    -DE/DX   Delta X   Delta X   Delta X     New X
                                 (Linear)    (Quad)   (Total)
    R1        1.43719   0.00020   0.00056   0.00000   0.00056   1.43775
         Item               Value     Threshold  Converged?
 Maximum Force            0.000202     0.000450     YES
 RMS     Force            0.000202     0.000300     YES
 Maximum Displacement     0.000280     0.001800     YES
 RMS     Displacement     0.000395     0.001200     YES
 Predicted change in Energy=-5.272333D-08
 Optimization completed.
    -- Stationary point found.
                           ----------------------------
                           !   Optimized Parameters   !
                           ! (Angstroms and Degrees)  !
 --------------------------                            --------------------------
 ! Name  Definition              Value          Derivative Info.                !
 --------------------------------------------------------------------------------
 ! R1    R(1,2)                  0.7605         -DE/DX =    0.0002              !
 --------------------------------------------------------------------------------
 GradGradGradGradGradGradGradGradGradGradGradGradGradGradGradGradGradGrad

 Largest change from initial coordinates is atom    2       0.010 Angstoms.
 Leave Link  103 at Sat Aug 17 19:56:16 2024, MaxMem=   13107200 cpu:       0.0
 (Enter /programs/64bit/g09/g09-gfortran/bin/l202.exe)
                          Input orientation:                          
 ---------------------------------------------------------------------
 Center     Atomic      Atomic             Coordinates (Angstroms)
 Number     Number       Type             X           Y           Z
 ---------------------------------------------------------------------
      1          1           0        0.000000    0.000000   -0.010265
      2          1           0        0.000000    0.000000    0.750265
 ---------------------------------------------------------------------
 Stoichiometry    H2
 Framework group  D*H[C*(H.H)]
 Deg. of freedom     1
 Full point group                 D*H     NOp   8
 Largest Abelian subgroup         D2H     NOp   8
 Largest concise Abelian subgroup C2      NOp   2
                         Standard orientation:                         
 ---------------------------------------------------------------------
 Center     Atomic      Atomic             Coordinates (Angstroms)
 Number     Number       Type             X           Y           Z
 ---------------------------------------------------------------------
      1          1           0        0.000000    0.000000    0.380265
      2          1           0        0.000000    0.000000   -0.380265
 ---------------------------------------------------------------------
 Rotational constants (GHZ):      0.0000000   1733.9255936   1733.9255936
 Leave Link  202 at Sat Aug 17 19:56:16 2024, MaxMem=   13107200 cpu:       0.0
 (Enter /programs/64bit/g09/g09-gfortran/bin/l601.exe)
 Copying SCF densities to generalized density rwf, IOpCl= 0 IROHF=0.

 **********************************************************************

            Population analysis using the SCF density.

 **********************************************************************

 Orbital symmetries:
       Occupied  (SGG)
       Virtual   (SGU) (SGG) (SGU) (PIU) (PIU) (SGG) (PIG) (PIG)
                 (SGU) (SGG) (SGU) (PIU) (PIU) (SGG) (PIG) (PIG)
                 (SGU)
 The electronic state is 1-SGG.
 Alpha  occ. eigenvalues --   -0.42801
 Alpha virt. eigenvalues --    0.01464   0.02619   0.12986   0.16779   0.16779
 Alpha virt. eigenvalues --    0.31368   0.35553   0.35553   0.45074   0.55652
 Alpha virt. eigenvalues --    0.98795   1.35877   1.35877   1.79230   1.96682
 Alpha virt. eigenvalues --    1.96682   3.26697
     Molecular Orbital Coefficients:
                           1         2         3         4         5
                       (SGG)--O  (SGU)--V  (SGG)--V  (SGU)--V  (PIU)--V
     Eigenvalues --    -0.42801   0.01464   0.02619   0.12986   0.16779
   1 1   H  1S          0.41039   0.12594  -0.11438   0.22487   0.00000
   2        2S          0.16571  -0.32708  -0.27492   7.22621   0.00000
   3        3S          0.01341   3.34605   0.65608  -4.01686   0.00000
   4        4PX         0.00000   0.00000   0.00000   0.00000   0.00000
   5        4PY         0.00000   0.00000   0.00000   0.00000   0.00741
   6        4PZ        -0.01850   0.01421   0.01294   0.04438   0.00000
   7        5PX         0.00000   0.00000   0.00000   0.00000   0.00000
   8        5PY         0.00000   0.00000   0.00000   0.00000   0.51451
   9        5PZ         0.00935   0.21197  -0.02351  -1.38689   0.00000
  10 2   H  1S          0.41039  -0.12594  -0.11438  -0.22487   0.00000
  11        2S          0.16571   0.32708  -0.27492  -7.22621   0.00000
  12        3S          0.01341  -3.34605   0.65608   4.01686   0.00000
  13        4PX         0.00000   0.00000   0.00000   0.00000   0.00000
  14        4PY         0.00000   0.00000   0.00000   0.00000   0.00741
  15        4PZ         0.01850   0.01421  -0.01294   0.04438   0.00000
  16        5PX         0.00000   0.00000   0.00000   0.00000   0.00000
  17        5PY         0.00000   0.00000   0.00000   0.00000   0.51451
  18        5PZ        -0.00935   0.21197   0.02351  -1.38689   0.00000
                           6         7         8         9        10
                       (PIU)--V  (SGG)--V  (PIG)--V  (PIG)--V  (SGU)--V
     Eigenvalues --     0.16779   0.31368   0.35553   0.35553   0.45074
   1 1   H  1S          0.00000  -0.21072   0.00000   0.00000  -0.30502
   2        2S          0.00000   0.86659   0.00000   0.00000  29.78747
   3        3S          0.00000  -0.42508   0.00000   0.00000  -2.69833
   4        4PX         0.00741   0.00000  -0.02569   0.00000   0.00000
   5        4PY         0.00000   0.00000   0.00000  -0.02569   0.00000
   6        4PZ         0.00000   0.00000   0.00000   0.00000   0.03300
   7        5PX         0.51451   0.00000   1.93946   0.00000   0.00000
   8        5PY         0.00000   0.00000   0.00000   1.93946   0.00000
   9        5PZ         0.00000   1.21787   0.00000   0.00000  -7.77300
  10 2   H  1S          0.00000  -0.21072   0.00000   0.00000   0.30502
  11        2S          0.00000   0.86659   0.00000   0.00000 -29.78747
  12        3S          0.00000  -0.42508   0.00000   0.00000   2.69833
  13        4PX         0.00741   0.00000   0.02569   0.00000   0.00000
  14        4PY         0.00000   0.00000   0.00000   0.02569   0.00000
  15        4PZ         0.00000  -0.00000   0.00000   0.00000   0.03300
  16        5PX         0.51451   0.00000  -1.93946   0.00000   0.00000
  17        5PY         0.00000   0.00000   0.00000  -1.93946   0.00000
  18        5PZ         0.00000  -1.21787   0.00000   0.00000  -7.77300
                          11        12        13        14        15
                       (SGG)--V  (SGU)--V  (PIU)--V  (PIU)--V  (SGG)--V
     Eigenvalues --     0.55652   0.98795   1.35877   1.35877   1.79230
   1 1   H  1S          0.81191   0.94789   0.00000   0.00000   0.39821
   2        2S         -0.66130  22.74022   0.00000   0.00000  -0.40093
   3        3S          0.22177  -0.50391   0.00000   0.00000   0.14020
   4        4PX         0.00000   0.00000   0.00000   0.67440   0.00000
   5        4PY         0.00000   0.00000   0.67440   0.00000   0.00000
   6        4PZ        -0.01718   0.43582   0.00000   0.00000   0.75244
   7        5PX         0.00000   0.00000   0.00000  -0.30724   0.00000
   8        5PY         0.00000   0.00000  -0.30724   0.00000   0.00000
   9        5PZ         0.92497  -6.68014   0.00000   0.00000  -0.45809
  10 2   H  1S          0.81191  -0.94789   0.00000   0.00000   0.39821
  11        2S         -0.66130 -22.74022   0.00000   0.00000  -0.40093
  12        3S          0.22177   0.50391   0.00000   0.00000   0.14020
  13        4PX         0.00000   0.00000   0.00000   0.67440   0.00000
  14        4PY         0.00000   0.00000   0.67440   0.00000   0.00000
  15        4PZ         0.01718   0.43582   0.00000   0.00000  -0.75244
  16        5PX         0.00000   0.00000   0.00000  -0.30724   0.00000
  17        5PY         0.00000   0.00000  -0.30724   0.00000   0.00000
  18        5PZ        -0.92497  -6.68014   0.00000   0.00000   0.45809
                          16        17        18
                       (PIG)--V  (PIG)--V  (SGU)--V
     Eigenvalues --     1.96682   1.96682   3.26697
   1 1   H  1S          0.00000   0.00000  -2.40288
   2        2S          0.00000   0.00000   7.94767
   3        3S          0.00000   0.00000  -0.41053
   4        4PX         1.05089   0.00000   0.00000
   5        4PY         0.00000   1.05089   0.00000
   6        4PZ         0.00000   0.00000   2.10597
   7        5PX        -0.73769   0.00000   0.00000
   8        5PY         0.00000  -0.73769   0.00000
   9        5PZ         0.00000   0.00000  -2.23170
  10 2   H  1S          0.00000   0.00000   2.40288
  11        2S          0.00000   0.00000  -7.94767
  12        3S          0.00000   0.00000   0.41053
  13        4PX        -1.05089   0.00000   0.00000
  14        4PY         0.00000  -1.05089   0.00000
  15        4PZ         0.00000   0.00000   2.10597
  16        5PX         0.73769   0.00000   0.00000
  17        5PY         0.00000   0.73769   0.00000
  18        5PZ         0.00000   0.00000  -2.23170
     Density Matrix:
                           1         2         3         4         5
   1 1   H  1S          0.33684
   2        2S          0.13601   0.05492
   3        3S          0.01100   0.00444   0.00036
   4        4PX        -0.00000  -0.00000  -0.00000   0.00000
   5        4PY        -0.00000  -0.00000  -0.00000   0.00000   0.00000
   6        4PZ        -0.01518  -0.00613  -0.00050   0.00000   0.00000
   7        5PX         0.00000   0.00000   0.00000  -0.00000   0.00000
   8        5PY         0.00000   0.00000   0.00000   0.00000  -0.00000
   9        5PZ         0.00767   0.00310   0.00025  -0.00000  -0.00000
  10 2   H  1S          0.33684   0.13601   0.01100  -0.00000  -0.00000
  11        2S          0.13601   0.05492   0.00444  -0.00000  -0.00000
  12        3S          0.01100   0.00444   0.00036  -0.00000  -0.00000
  13        4PX         0.00000   0.00000   0.00000  -0.00000   0.00000
  14        4PY         0.00000   0.00000   0.00000   0.00000  -0.00000
  15        4PZ         0.01518   0.00613   0.00050  -0.00000  -0.00000
  16        5PX        -0.00000  -0.00000  -0.00000   0.00000   0.00000
  17        5PY        -0.00000  -0.00000  -0.00000   0.00000   0.00000
  18        5PZ        -0.00767  -0.00310  -0.00025   0.00000   0.00000
                           6         7         8         9        10
   6        4PZ         0.00068
   7        5PX        -0.00000   0.00000
   8        5PY        -0.00000   0.00000   0.00000
   9        5PZ        -0.00035   0.00000   0.00000   0.00017
  10 2   H  1S         -0.01518   0.00000   0.00000   0.00767   0.33684
  11        2S         -0.00613   0.00000   0.00000   0.00310   0.13601
  12        3S         -0.00050   0.00000   0.00000   0.00025   0.01100
  13        4PX        -0.00000   0.00000   0.00000   0.00000   0.00000
  14        4PY        -0.00000   0.00000   0.00000   0.00000   0.00000
  15        4PZ        -0.00068   0.00000   0.00000   0.00035   0.01518
  16        5PX         0.00000  -0.00000   0.00000  -0.00000  -0.00000
  17        5PY         0.00000   0.00000  -0.00000  -0.00000  -0.00000
  18        5PZ         0.00035  -0.00000  -0.00000  -0.00017  -0.00767
                          11        12        13        14        15
  11        2S          0.05492
  12        3S          0.00444   0.00036
  13        4PX         0.00000   0.00000   0.00000
  14        4PY         0.00000   0.00000   0.00000   0.00000
  15        4PZ         0.00613   0.00050   0.00000   0.00000   0.00068
  16        5PX        -0.00000  -0.00000  -0.00000   0.00000  -0.00000
  17        5PY        -0.00000  -0.00000   0.00000  -0.00000  -0.00000
  18        5PZ        -0.00310  -0.00025  -0.00000  -0.00000  -0.00035
                          16        17        18
  16        5PX         0.00000
  17        5PY         0.00000   0.00000
  18        5PZ         0.00000   0.00000   0.00017
    Full Mulliken population analysis:
                           1         2         3         4         5
   1 1   H  1S          0.33684
   2        2S          0.09315   0.05492
   3        3S          0.00334   0.00314   0.00036
   4        4PX         0.00000   0.00000   0.00000   0.00000
   5        4PY         0.00000   0.00000   0.00000   0.00000   0.00000
   6        4PZ         0.00000   0.00000   0.00000  -0.00000   0.00000
   7        5PX         0.00000   0.00000   0.00000  -0.00000   0.00000
   8        5PY         0.00000   0.00000   0.00000   0.00000  -0.00000
   9        5PZ         0.00000   0.00000   0.00000   0.00000   0.00000
  10 2   H  1S          0.18668   0.07609   0.00315   0.00000   0.00000
  11        2S          0.07609   0.04842   0.00299   0.00000   0.00000
  12        3S          0.00315   0.00299   0.00035   0.00000   0.00000
  13        4PX         0.00000   0.00000   0.00000  -0.00000   0.00000
  14        4PY         0.00000   0.00000   0.00000   0.00000  -0.00000
  15        4PZ         0.00808   0.00102   0.00001   0.00000   0.00000
  16        5PX         0.00000   0.00000   0.00000   0.00000   0.00000
  17        5PY        -0.00000  -0.00000  -0.00000   0.00000   0.00000
  18        5PZ        -0.00375  -0.00135  -0.00003   0.00000  -0.00000
                           6         7         8         9        10
   6        4PZ         0.00068
   7        5PX         0.00000   0.00000
   8        5PY         0.00000   0.00000   0.00000
   9        5PZ        -0.00016  -0.00000   0.00000   0.00017
  10 2   H  1S          0.00808  -0.00000  -0.00000  -0.00375   0.33684
  11        2S          0.00102  -0.00000  -0.00000  -0.00135   0.09315
  12        3S          0.00001  -0.00000  -0.00000  -0.00003   0.00334
  13        4PX         0.00000   0.00000   0.00000  -0.00000   0.00000
  14        4PY         0.00000   0.00000   0.00000  -0.00000   0.00000
  15        4PZ         0.00016  -0.00000  -0.00000   0.00006   0.00000
  16        5PX         0.00000  -0.00000   0.00000   0.00000   0.00000
  17        5PY        -0.00000   0.00000  -0.00000   0.00000   0.00000
  18        5PZ         0.00006   0.00000   0.00000  -0.00011   0.00000
                          11        12        13        14        15
  11        2S          0.05492
  12        3S          0.00314   0.00036
  13        4PX         0.00000   0.00000   0.00000
  14        4PY         0.00000   0.00000   0.00000   0.00000
  15        4PZ         0.00000   0.00000   0.00000   0.00000   0.00068
  16        5PX         0.00000   0.00000  -0.00000   0.00000   0.00000
  17        5PY         0.00000   0.00000   0.00000  -0.00000   0.00000
  18        5PZ         0.00000   0.00000   0.00000   0.00000  -0.00016
                          16        17        18
  16        5PX         0.00000
  17        5PY         0.00000   0.00000
  18        5PZ         0.00000   0.00000   0.00017
     Gross orbital populations:
                           1
   1 1   H  1S          0.70359
   2        2S          0.27838
   3        3S          0.01332
   4        4PX         0.00000
   5        4PY         0.00000
   6        4PZ         0.00987
   7        5PX        -0.00000
   8        5PY        -0.00000
   9        5PZ        -0.00516
  10 2   H  1S          0.70359
  11        2S          0.27838
  12        3S          0.01332
  13        4PX         0.00000
  14        4PY         0.00000
  15        4PZ         0.00987
  16        5PX        -0.00000
  17        5PY        -0.00000
  18        5PZ        -0.00516
          Condensed to atoms (all electrons):
              1          2
     1  H    0.591917   0.408083
     2  H    0.408083   0.591917
 Mulliken atomic charges:
              1
     1  H   -0.000000
     2  H   -0.000000
 Sum of Mulliken atomic charges =  -0.00000
 Mulliken charges with hydrogens summed into heavy atoms:
              1
 Sum of Mulliken charges with hydrogens summed into heavy atoms =  -0.00000
 Electronic spatial extent (au):  <R**2>=              5.2979
 Charge=             -0.0000 electrons
 Dipole moment (field-independent basis, Debye):
    X=             -0.0000    Y=             -0.0000    Z=             -0.0000  Tot=              0.0000
 Quadrupole moment (field-independent basis, Debye-Ang):
   XX=             -2.0867   YY=             -2.0867   ZZ=             -1.5633
   XY=             -0.0000   XZ=             -0.0000   YZ=              0.0000
 Traceless Quadrupole moment (field-independent basis, Debye-Ang):
   XX=             -0.1745   YY=             -0.1745   ZZ=              0.3490
   XY=             -0.0000   XZ=             -0.0000   YZ=              0.0000
 Octapole moment (field-independent basis, Debye-Ang**2):
  XXX=             -0.0000  YYY=              0.0000  ZZZ=              0.0000  XYY=             -0.0000
  XXY=             -0.0000  XXZ=              0.0000  XZZ=             -0.0000  YZZ=              0.0000
  YYZ=              0.0000  XYZ=              0.0000
 Hexadecapole moment (field-independent basis, Debye-Ang**3):
 XXXX=             -2.2048 YYYY=             -2.2048 ZZZZ=             -3.3348 XXXY=              0.0000
 XXXZ=              0.0000 YYYX=              0.0000 YYYZ=             -0.0000 ZZZX=              0.0000
 ZZZY=             -0.0000 XXYY=             -0.7349 XXZZ=             -0.9379 YYZZ=             -0.9379
 XXYZ=             -0.0000 YYXZ=              0.0000 ZZXY=              0.0000
 N-N= 6.958014594130D-01 E-N=-3.559626421548D+00  KE= 1.085053116104D+00
 Symmetry AG   KE= 1.085053116104D+00
 Symmetry B1G  KE= 0.000000000000D+00
 Symmetry B2G  KE= 2.926984003921D-34
 Symmetry B3G  KE= 2.926984003921D-34
 Symmetry AU   KE= 0.000000000000D+00
 Symmetry B1U  KE= 8.819528898519D-31
 Symmetry B2U  KE= 4.443006489635D-35
 Symmetry B3U  KE= 4.443006489635D-35
 Orbital energies and kinetic energies (alpha):
                                 1                 2
   1         (SGG)--O         -0.428011          0.542527
   2         (SGU)--V          0.014636          0.140663
   3         (SGG)--V          0.026187          0.115426
   4         (SGU)--V          0.129860          0.385690
   5         (PIU)--V          0.167791          0.346013
   6         (PIU)--V          0.167791          0.346013
   7         (SGG)--V          0.313685          0.519661
   8         (PIG)--V          0.355530          0.478390
   9         (PIG)--V          0.355530          0.478390
  10         (SGU)--V          0.450737          0.733027
  11         (SGG)--V          0.556517          1.068011
  12         (SGU)--V          0.987953          1.819048
  13         (PIU)--V          1.358769          1.929442
  14         (PIU)--V          1.358769          1.929442
  15         (SGG)--V          1.792303          2.462489
  16         (PIG)--V          1.966820          2.509323
  17         (PIG)--V          1.966820          2.509323
  18         (SGU)--V          3.266968          4.465406
 Total kinetic energy from orbitals= 1.085053116104D+00
 No NMR shielding tensors so no spin-rotation constants.
 Leave Link  601 at Sat Aug 17 19:56:16 2024, MaxMem=   13107200 cpu:       0.1
 (Enter /programs/64bit/g09/g09-gfortran/bin/l9999.exe)
 B after Tr=     0.000000    0.000000    0.699199
         Rot=    0.000000   -0.000000    1.000000   -0.000000 Ang= 180.00 deg.
 Final structure in terms of initial Z-matrix:
 H
 H,1,d
      Variables:
 d=0.76052903
 1\1\GINC-MOLMOD\FOpt\RB3LYP\Aug-CC-pVDZ\H2\OSPITE\17-Aug-2024\0\\#p b3
 lyp/aug-cc-pVDZ opt freq pop=full gfinput\\hydrogen (moldecule) with a
 nd aug-cc-pVDZ basis function\\0,1\H,0.,0.,-0.0102645147\H,0.,0.,0.750
 2645147\\Version=EM64L-G09RevA.02\State=1-SGG\HF=-1.1740251\RMSD=3.129
 e-10\RMSF=1.169e-04\Dipole=0.,0.,0.\Quadrupole=-0.1297265,-0.1297265,0
 .2594529,0.,0.,0.\PG=D*H [C*(H1.H1)]\\@


 WORK FAITHFULLY FOR EIGHT HOURS A DAY AND DON'T WORRY.
 IN TIME YOU MAY BECOME BOSS AND WORK TWELVE HOURS A DAY
 AND HAVE ALL THE WORRY.
 Leave Link 9999 at Sat Aug 17 19:56:16 2024, MaxMem=   13107200 cpu:       0.1
 Job cpu time:  0 days  0 hours  0 minutes  3.2 seconds.
 File lengths (MBytes):  RWF=      5 Int=      0 D2E=      0 Chk=      1 Scr=      1
 Normal termination of Gaussian 09 at Sat Aug 17 19:56:16 2024.
 (Enter /programs/64bit/g09/g09-gfortran/bin/l1.exe)
 Link1:  Proceeding to internal job step number  2.
 ----------------------------------------------------------------------
 #P Geom=AllCheck Guess=TCheck SCRF=Check GenChk RB3LYP/Aug-CC-pVDZ Fre
 q
 ----------------------------------------------------------------------
 1/10=4,29=7,30=1,38=1,40=1/1,3;
 2/12=2,40=1/2;
 3/5=16,7=10,11=2,14=-4,16=1,24=10,25=1,30=1,70=2,71=2,74=-5,116=1/1,2,3;
 4/5=101/1;
 5/5=2,98=1/2;
 8/6=4,10=90,11=11/1;
 11/6=1,8=1,9=11,15=111,16=1/1,2,10;
 10/6=1/2;
 6/7=3,18=1,28=1/1;
 7/8=1,10=1,25=1/1,2,3,16;
 1/10=4,30=1/3;
 99//99;
 Leave Link    1 at Sat Aug 17 19:56:16 2024, MaxMem=   13107200 cpu:       0.1
 (Enter /programs/64bit/g09/g09-gfortran/bin/l101.exe)
 --------------------------------------------------------
 hydrogen (moldecule) with and aug-cc-pVDZ basis function
 --------------------------------------------------------
 Redundant internal coordinates taken from checkpoint file:
 /home/ospite/Desktop/MMfP/Project6/H2/g09/DFT/Gau-12933.chk
 Charge =  0 Multiplicity = 1
 H,0,0.,0.,-0.0102645147
 H,0,0.,0.,0.7502645147
 Recover connectivity data from disk.
                    Isotopes and Nuclear Properties:
 (Nuclear quadrupole moments (NQMom) in fm**2, nuclear magnetic moments (NMagM)
  in nuclear magnetons)

  Atom         1           2
 IAtWgt=           1           1
 AtmWgt=   1.0078250   1.0078250
 NucSpn=           1           1
 AtZEff=  -1.0000000  -1.0000000
 NQMom=    0.0000000   0.0000000
 NMagM=    2.7928460   2.7928460
 Leave Link  101 at Sat Aug 17 19:56:17 2024, MaxMem=   13107200 cpu:       0.1
 (Enter /programs/64bit/g09/g09-gfortran/bin/l103.exe)

 GradGradGradGradGradGradGradGradGradGradGradGradGradGradGradGradGradGrad
 Berny optimization.
 Initialization pass.
                           ----------------------------
                           !    Initial Parameters    !
                           ! (Angstroms and Degrees)  !
 --------------------------                            --------------------------
 ! Name  Definition              Value          Derivative Info.                !
 --------------------------------------------------------------------------------
 ! R1    R(1,2)                  0.7605         calculate D2E/DX2 analytically  !
 --------------------------------------------------------------------------------
 Trust Radius=3.00D-01 FncErr=1.00D-07 GrdErr=1.00D-07
 Number of steps in this run=   2 maximum allowed number of steps=   2.
 GradGradGradGradGradGradGradGradGradGradGradGradGradGradGradGradGradGrad

 Leave Link  103 at Sat Aug 17 19:56:17 2024, MaxMem=   13107200 cpu:       0.0
 (Enter /programs/64bit/g09/g09-gfortran/bin/l202.exe)
                          Input orientation:                          
 ---------------------------------------------------------------------
 Center     Atomic      Atomic             Coordinates (Angstroms)
 Number     Number       Type             X           Y           Z
 ---------------------------------------------------------------------
      1          1           0        0.000000    0.000000   -0.010265
      2          1           0        0.000000    0.000000    0.750265
 ---------------------------------------------------------------------
 Stoichiometry    H2
 Framework group  D*H[C*(H.H)]
 Deg. of freedom     1
 Full point group                 D*H     NOp   8
 Largest Abelian subgroup         D2H     NOp   8
 Largest concise Abelian subgroup C2      NOp   2
                         Standard orientation:                         
 ---------------------------------------------------------------------
 Center     Atomic      Atomic             Coordinates (Angstroms)
 Number     Number       Type             X           Y           Z
 ---------------------------------------------------------------------
      1          1           0        0.000000    0.000000    0.380265
      2          1           0        0.000000    0.000000   -0.380265
 ---------------------------------------------------------------------
 Rotational constants (GHZ):      0.0000000   1733.9255936   1733.9255936
 Leave Link  202 at Sat Aug 17 19:56:17 2024, MaxMem=   13107200 cpu:       0.0
 (Enter /programs/64bit/g09/g09-gfortran/bin/l301.exe)
 Standard basis: Aug-CC-pVDZ (5D, 7F)
 Ernie: Thresh=  0.10000D-02 Tol=  0.10000D-05 Strict=F.
 AO basis set in the form of general basis input (Overlap normalization):
      1 0
 S   3 1.00       0.000000000000
      0.1301000000D+02  0.3349872639D-01
      0.1962000000D+01  0.2348008012D+00
      0.4446000000D+00  0.8136829579D+00
 S   1 1.00       0.000000000000
      0.1220000000D+00  0.1000000000D+01
 S   1 1.00       0.000000000000
      0.2974000000D-01  0.1000000000D+01
 P   1 1.00       0.000000000000
      0.7270000000D+00  0.1000000000D+01
 P   1 1.00       0.000000000000
      0.1410000000D+00  0.1000000000D+01
 ****
      2 0
 S   3 1.00       0.000000000000
      0.1301000000D+02  0.3349872639D-01
      0.1962000000D+01  0.2348008012D+00
      0.4446000000D+00  0.8136829579D+00
 S   1 1.00       0.000000000000
      0.1220000000D+00  0.1000000000D+01
 S   1 1.00       0.000000000000
      0.2974000000D-01  0.1000000000D+01
 P   1 1.00       0.000000000000
      0.7270000000D+00  0.1000000000D+01
 P   1 1.00       0.000000000000
      0.1410000000D+00  0.1000000000D+01
 ****

 There are     5 symmetry adapted basis functions of AG  symmetry.
 There are     0 symmetry adapted basis functions of B1G symmetry.
 There are     2 symmetry adapted basis functions of B2G symmetry.
 There are     2 symmetry adapted basis functions of B3G symmetry.
 There are     0 symmetry adapted basis functions of AU  symmetry.
 There are     5 symmetry adapted basis functions of B1U symmetry.
 There are     2 symmetry adapted basis functions of B2U symmetry.
 There are     2 symmetry adapted basis functions of B3U symmetry.
 Integral buffers will be    131072 words long.
 Raffenetti 2 integral format.
 Two-electron integral symmetry is turned on.
    18 basis functions,    22 primitive gaussians,    18 cartesian basis functions
     1 alpha electrons        1 beta electrons
       nuclear repulsion energy         0.6958014594 Hartrees.
 IExCor=  402 DFT=T Ex+Corr=B3LYP ExCW=0 ScaHFX=  0.200000
 ScaDFX=  0.800000  0.720000  1.000000  0.810000 ScalE2=  1.000000  1.000000
 IRadAn=      0 IRanWt=     -1 IRanGd=            0 ICorTp=0
 NAtoms=    2 NActive=    2 NUniq=    1 SFac= 3.00D+00 NAtFMM=   80 NAOKFM=F Big=F
 Leave Link  301 at Sat Aug 17 19:56:17 2024, MaxMem=   13107200 cpu:       0.1
 (Enter /programs/64bit/g09/g09-gfortran/bin/l302.exe)
 NPDir=0 NMtPBC=     1 NCelOv=     1 NCel=       1 NClECP=     1 NCelD=      1
         NCelK=      1 NCelE2=     1 NClLst=     1 CellRange=     0.0.
 One-electron integrals computed using PRISM.
 One-electron integral symmetry used in STVInt
 NBasis=    18 RedAO= T  NBF=     5     0     2     2     0     5     2     2
 NBsUse=    18 1.00D-06 NBFU=     5     0     2     2     0     5     2     2
 Precomputing XC quadrature grid using
 IXCGrd= 2 IRadAn=           0 IRanWt=          -1 IRanGd=           0 AccXCQ= 1.00D-10.
 NRdTot=     128 NPtTot=       16336 NUsed=       17271 NTot=       17303
 NSgBfM=    18    18    18    18    18 NAtAll=     2     2.
 Leave Link  302 at Sat Aug 17 19:56:17 2024, MaxMem=   13107200 cpu:       0.2
 (Enter /programs/64bit/g09/g09-gfortran/bin/l303.exe)
 DipDrv:  MaxL=1.
 Leave Link  303 at Sat Aug 17 19:56:17 2024, MaxMem=   13107200 cpu:       0.0
 (Enter /programs/64bit/g09/g09-gfortran/bin/l401.exe)
 Initial guess read from the checkpoint file:  /home/ospite/Desktop/MMfP/Project6
 /H2/g09/DFT/Gau-12933.chk
 B after Tr=     0.000000    0.000000    0.000000
         Rot=    1.000000    0.000000    0.000000    0.000000 Ang=   0.00 deg.
 Guess basis will be translated and rotated to current coordinates.
 Initial guess orbital symmetries:
       Occupied  (SGG)
       Virtual   (SGU) (SGG) (SGU) (PIU) (PIU) (SGG) (PIG) (PIG)
                 (SGU) (SGG) (SGU) (PIU) (PIU) (SGG) (PIG) (PIG)
                 (SGU)
 The electronic state of the initial guess is 1-SGG.
 Leave Link  401 at Sat Aug 17 19:56:18 2024, MaxMem=   13107200 cpu:       0.2
 (Enter /programs/64bit/g09/g09-gfortran/bin/l502.exe)
 Closed shell SCF:
 Requested convergence on RMS density matrix=1.00D-08 within 128 cycles.
 Requested convergence on MAX density matrix=1.00D-06.
 Requested convergence on             energy=1.00D-06.
 No special actions if energy rises.
 Using DIIS extrapolation, IDIIS=  1040.
 Integral symmetry usage will be decided dynamically.
        17240 words used for storage of precomputed grid.
 Keep R1 ints in memory in canonical form, NReq=909671.
 IEnd=       37081 IEndB=       37081 NGot=    13107200 MDV=    13072488
 LenX=    13072488 LenY=    13071606
 Symmetry not used in FoFDir.
 MinBra= 0 MaxBra= 1 Meth= 1.
 IRaf=       0 NMat=   1 IRICut=       1 DoRegI=T DoRafI=F ISym2E= 0 JSym2E=0.

 Cycle   1  Pass 1  IDiag  1:
 E= -1.17402505043676    
 DIIS: error= 3.63D-11 at cycle   1 NSaved=   1.
 NSaved= 1 IEnMin= 1 EnMin= -1.17402505043676     IErMin= 1 ErrMin= 3.63D-11
 ErrMax= 3.63D-11 EMaxC= 1.00D-01 BMatC= 1.24D-20 BMatP= 1.24D-20
 IDIUse=1 WtCom= 1.00D+00 WtEn= 0.00D+00
 Coeff-Com:  0.100D+01
 Coeff:      0.100D+01
 Gap=     0.443 Goal=   None    Shift=    0.000
 RMSDP=9.91D-12 MaxDP=7.06D-11              OVMax= 1.78D-10

 SCF Done:  E(RB3LYP) =  -1.17402505044     A.U. after    1 cycles
             Convg  =    0.9906D-11             -V/T =  2.0820
 KE= 1.085053116395D+00 PE=-3.559626421840D+00 EE= 6.047467955947D-01
 Leave Link  502 at Sat Aug 17 19:56:18 2024, MaxMem=   13107200 cpu:       0.1
 (Enter /programs/64bit/g09/g09-gfortran/bin/l801.exe)
 Range of M.O.s used for correlation:     1    18
 NBasis=    18 NAE=     1 NBE=     1 NFC=     0 NFV=     0
 NROrb=     18 NOA=     1 NOB=     1 NVA=    17 NVB=    17

 **** Warning!!: The largest alpha MO coefficient is  0.29787466D+02

 Leave Link  801 at Sat Aug 17 19:56:18 2024, MaxMem=   13107200 cpu:       0.0
 (Enter /programs/64bit/g09/g09-gfortran/bin/l1101.exe)
 Using compressed storage, NAtomX=     2.
 Will process   3 centers per pass.
 Leave Link 1101 at Sat Aug 17 19:56:18 2024, MaxMem=   13107200 cpu:       0.1
 (Enter /programs/64bit/g09/g09-gfortran/bin/l1102.exe)
 Symmetrizing basis deriv contribution to polar:
 IMax=3 JMax=2 DiffMx= 0.00D+00
 Leave Link 1102 at Sat Aug 17 19:56:18 2024, MaxMem=   13107200 cpu:       0.0
 (Enter /programs/64bit/g09/g09-gfortran/bin/l1110.exe)
 Forming Gx(P) for the SCF density, NAtomX=     2.
 Integral derivatives from FoFDir/FoFCou, PRISM(SPDF).
 Do as many integral derivatives as possible in FoFDir.
 G2DrvN: MDV=      13107080.
 G2DrvN: will do     3 centers at a time, making    1 passes doing MaxLOS=1.
 Calling FoFCou, ICntrl=  3107 FMM=F I1Cent=   0 AccDes= 0.00D+00.
 FoFCou: FMM=F IPFlag=           0 FMFlag=      100000 FMFlg1=           0
[...]
  10 2   H  1S          0.00000   0.00000   2.40288
  11        2S          0.00000   0.00000  -7.94767
  12        3S          0.00000   0.00000   0.41053
  13        4PX         0.00000  -1.05089   0.00000
  14        4PY        -1.05089   0.00000   0.00000
  15        4PZ         0.00000   0.00000   2.10597
  16        5PX         0.00000   0.73769   0.00000
  17        5PY         0.73769   0.00000   0.00000
  18        5PZ         0.00000   0.00000  -2.23170
     Density Matrix:
                           1         2         3         4         5
   1 1   H  1S          0.33684
   2        2S          0.13601   0.05492
   3        3S          0.01100   0.00444   0.00036
   4        4PX        -0.00000  -0.00000  -0.00000   0.00000
   5        4PY        -0.00000  -0.00000  -0.00000   0.00000   0.00000
   6        4PZ        -0.01518  -0.00613  -0.00050   0.00000   0.00000
   7        5PX         0.00000   0.00000   0.00000  -0.00000   0.00000
   8        5PY         0.00000   0.00000   0.00000   0.00000  -0.00000
   9        5PZ         0.00767   0.00310   0.00025  -0.00000  -0.00000
  10 2   H  1S          0.33684   0.13601   0.01100  -0.00000  -0.00000
  11        2S          0.13601   0.05492   0.00444  -0.00000  -0.00000
  12        3S          0.01100   0.00444   0.00036  -0.00000  -0.00000
  13        4PX         0.00000   0.00000   0.00000  -0.00000   0.00000
  14        4PY         0.00000   0.00000   0.00000   0.00000  -0.00000
  15        4PZ         0.01518   0.00613   0.00050  -0.00000  -0.00000
  16        5PX        -0.00000  -0.00000  -0.00000   0.00000   0.00000
  17        5PY        -0.00000  -0.00000  -0.00000   0.00000   0.00000
  18        5PZ        -0.00767  -0.00310  -0.00025   0.00000   0.00000
                           6         7         8         9        10
   6        4PZ         0.00068
   7        5PX        -0.00000   0.00000
   8        5PY        -0.00000   0.00000   0.00000
   9        5PZ        -0.00035   0.00000   0.00000   0.00017
  10 2   H  1S         -0.01518   0.00000   0.00000   0.00767   0.33684
  11        2S         -0.00613   0.00000   0.00000   0.00310   0.13601
  12        3S         -0.00050   0.00000   0.00000   0.00025   0.01100
  13        4PX        -0.00000   0.00000   0.00000   0.00000   0.00000
  14        4PY        -0.00000   0.00000   0.00000   0.00000   0.00000
  15        4PZ        -0.00068   0.00000   0.00000   0.00035   0.01518
  16        5PX         0.00000  -0.00000   0.00000  -0.00000  -0.00000
  17        5PY         0.00000   0.00000  -0.00000  -0.00000  -0.00000
  18        5PZ         0.00035  -0.00000  -0.00000  -0.00017  -0.00767
                          11        12        13        14        15
  11        2S          0.05492
  12        3S          0.00444   0.00036
  13        4PX         0.00000   0.00000   0.00000
  14        4PY         0.00000   0.00000   0.00000   0.00000
  15        4PZ         0.00613   0.00050   0.00000   0.00000   0.00068
  16        5PX        -0.00000  -0.00000  -0.00000   0.00000  -0.00000
  17        5PY        -0.00000  -0.00000   0.00000  -0.00000  -0.00000
  18        5PZ        -0.00310  -0.00025  -0.00000  -0.00000  -0.00035
                          16        17        18
  16        5PX         0.00000
  17        5PY         0.00000   0.00000
  18        5PZ         0.00000   0.00000   0.00017
    Full Mulliken population analysis:
                           1         2         3         4         5
   1 1   H  1S          0.33684
   2        2S          0.09315   0.05492
   3        3S          0.00334   0.00314   0.00036
   4        4PX         0.00000   0.00000   0.00000   0.00000
   5        4PY         0.00000   0.00000   0.00000   0.00000   0.00000
   6        4PZ         0.00000   0.00000   0.00000  -0.00000   0.00000
   7        5PX         0.00000   0.00000   0.00000  -0.00000   0.00000
   8        5PY         0.00000   0.00000   0.00000   0.00000  -0.00000
   9        5PZ         0.00000   0.00000   0.00000   0.00000   0.00000
  10 2   H  1S          0.18668   0.07609   0.00315   0.00000   0.00000
  11        2S          0.07609   0.04842   0.00299   0.00000   0.00000
  12        3S          0.00315   0.00299   0.00035   0.00000   0.00000
  13        4PX         0.00000   0.00000   0.00000  -0.00000   0.00000
  14        4PY         0.00000   0.00000   0.00000   0.00000  -0.00000
  15        4PZ         0.00808   0.00102   0.00001   0.00000   0.00000
  16        5PX         0.00000   0.00000   0.00000   0.00000   0.00000
  17        5PY        -0.00000  -0.00000  -0.00000   0.00000   0.00000
  18        5PZ        -0.00375  -0.00135  -0.00003   0.00000  -0.00000
                           6         7         8         9        10
   6        4PZ         0.00068
   7        5PX         0.00000   0.00000
   8        5PY         0.00000   0.00000   0.00000
   9        5PZ        -0.00016  -0.00000   0.00000   0.00017
  10 2   H  1S          0.00808  -0.00000  -0.00000  -0.00375   0.33684
  11        2S          0.00102  -0.00000  -0.00000  -0.00135   0.09315
  12        3S          0.00001  -0.00000  -0.00000  -0.00003   0.00334
  13        4PX         0.00000   0.00000   0.00000  -0.00000   0.00000
  14        4PY         0.00000   0.00000   0.00000  -0.00000   0.00000
  15        4PZ         0.00016  -0.00000  -0.00000   0.00006   0.00000
  16        5PX         0.00000  -0.00000   0.00000   0.00000   0.00000
  17        5PY        -0.00000   0.00000  -0.00000   0.00000   0.00000
  18        5PZ         0.00006   0.00000   0.00000  -0.00011   0.00000
                          11        12        13        14        15
  11        2S          0.05492
  12        3S          0.00314   0.00036
  13        4PX         0.00000   0.00000   0.00000
  14        4PY         0.00000   0.00000   0.00000   0.00000
  15        4PZ         0.00000   0.00000   0.00000   0.00000   0.00068
  16        5PX         0.00000   0.00000  -0.00000   0.00000   0.00000
  17        5PY         0.00000   0.00000   0.00000  -0.00000   0.00000
  18        5PZ         0.00000   0.00000   0.00000   0.00000  -0.00016
                          16        17        18
  16        5PX         0.00000
  17        5PY         0.00000   0.00000
  18        5PZ         0.00000   0.00000   0.00017
     Gross orbital populations:
                           1
   1 1   H  1S          0.70359
   2        2S          0.27838
   3        3S          0.01332
   4        4PX         0.00000
   5        4PY         0.00000
   6        4PZ         0.00987
   7        5PX        -0.00000
   8        5PY        -0.00000
   9        5PZ        -0.00516
  10 2   H  1S          0.70359
  11        2S          0.27838
  12        3S          0.01332
  13        4PX         0.00000
  14        4PY         0.00000
  15        4PZ         0.00987
  16        5PX        -0.00000
  17        5PY        -0.00000
  18        5PZ        -0.00516
          Condensed to atoms (all electrons):
              1          2
     1  H    0.591917   0.408083
     2  H    0.408083   0.591917
 Mulliken atomic charges:
              1
     1  H   -0.000000
     2  H   -0.000000
 Sum of Mulliken atomic charges =  -0.00000
 Mulliken charges with hydrogens summed into heavy atoms:
              1
 Sum of Mulliken charges with hydrogens summed into heavy atoms =  -0.00000
 APT atomic charges:
              1
     1  H   -0.000000
     2  H   -0.000000
 Sum of APT charges=  -0.00000
 APT Atomic charges with hydrogens summed into heavy atoms:
              1
     1  H   -0.000000
     2  H   -0.000000
 Sum of APT charges=  -0.00000
 Electronic spatial extent (au):  <R**2>=              5.2979
 Charge=             -0.0000 electrons
 Dipole moment (field-independent basis, Debye):
    X=             -0.0000    Y=             -0.0000    Z=              0.0000  Tot=              0.0000
 Quadrupole moment (field-independent basis, Debye-Ang):
   XX=             -2.0867   YY=             -2.0867   ZZ=             -1.5633
   XY=             -0.0000   XZ=             -0.0000   YZ=              0.0000
 Traceless Quadrupole moment (field-independent basis, Debye-Ang):
   XX=             -0.1745   YY=             -0.1745   ZZ=              0.3490
   XY=             -0.0000   XZ=             -0.0000   YZ=              0.0000
 Octapole moment (field-independent basis, Debye-Ang**2):
  XXX=             -0.0000  YYY=             -0.0000  ZZZ=              0.0000  XYY=             -0.0000
  XXY=              0.0000  XXZ=              0.0000  XZZ=             -0.0000  YZZ=              0.0000
  YYZ=              0.0000  XYZ=              0.0000
 Hexadecapole moment (field-independent basis, Debye-Ang**3):
 XXXX=             -2.2048 YYYY=             -2.2048 ZZZZ=             -3.3348 XXXY=              0.0000
 XXXZ=              0.0000 YYYX=              0.0000 YYYZ=             -0.0000 ZZZX=              0.0000
 ZZZY=             -0.0000 XXYY=             -0.7349 XXZZ=             -0.9379 YYZZ=             -0.9379
 XXYZ=             -0.0000 YYXZ=              0.0000 ZZXY=              0.0000
 N-N= 6.958014594130D-01 E-N=-3.559626421937D+00  KE= 1.085053116395D+00
 Symmetry AG   KE= 1.085053116395D+00
 Symmetry B1G  KE= 0.000000000000D+00
 Symmetry B2G  KE= 2.926984004502D-34
 Symmetry B3G  KE= 2.926984004502D-34
 Symmetry AU   KE= 0.000000000000D+00
 Symmetry B1U  KE= 8.827694104134D-31
 Symmetry B2U  KE= 4.443006490672D-35
 Symmetry B3U  KE= 4.443006490672D-35
 Orbital energies and kinetic energies (alpha):
                                 1                 2
   1         (SGG)--O         -0.428011          0.542527
   2         (SGU)--V          0.014636          0.140663
   3         (SGG)--V          0.026187          0.115426
   4         (SGU)--V          0.129860          0.385690
   5         (PIU)--V          0.167791          0.346013
   6         (PIU)--V          0.167791          0.346013
   7         (SGG)--V          0.313685          0.519661
   8         (PIG)--V          0.355530          0.478390
   9         (PIG)--V          0.355530          0.478390
  10         (SGU)--V          0.450737          0.733027
  11         (SGG)--V          0.556517          1.068011
  12         (SGU)--V          0.987953          1.819048
  13         (PIU)--V          1.358769          1.929442
  14         (PIU)--V          1.358769          1.929442
  15         (SGG)--V          1.792303          2.462489
  16         (PIG)--V          1.966820          2.509323
  17         (PIG)--V          1.966820          2.509323
  18         (SGU)--V          3.266968          4.465406
 Total kinetic energy from orbitals= 1.085053116395D+00
  Exact polarizability:   4.628   0.000   4.628   0.000   0.000   7.224
 Approx polarizability:   4.748  -0.000   4.748  -0.000  -0.000   8.629
 No NMR shielding tensors so no spin-rotation constants.
 Leave Link  601 at Sat Aug 17 19:56:19 2024, MaxMem=   13107200 cpu:       0.1
 (Enter /programs/64bit/g09/g09-gfortran/bin/l701.exe)
 Compute integral second derivatives.
 ... and contract with generalized density number  0.
 Leave Link  701 at Sat Aug 17 19:56:19 2024, MaxMem=   13107200 cpu:       0.1
 (Enter /programs/64bit/g09/g09-gfortran/bin/l702.exe)
 L702 exits ... SP integral derivatives will be done elsewhere.
 Leave Link  702 at Sat Aug 17 19:56:20 2024, MaxMem=   13107200 cpu:       0.1
 (Enter /programs/64bit/g09/g09-gfortran/bin/l703.exe)
 Compute integral second derivatives, UseDBF=F ICtDFT=           0.
 Integral derivatives from FoFDir, PRISM(SPDF).
 Calling FoFJK, ICntrl=    100127 FMM=F ISym2X=1 I1Cent= 0 IOpClX= 0 NMat=1 NMatS=1 NMatT=0.
 FoFCou: FMM=F IPFlag=           0 FMFlag=      100000 FMFlg1=         800
         NFxFlg=           0 DoJE=F BraDBF=F KetDBF=F FulRan=T
         Omega=  0.000000  0.000000  1.000000  0.000000  0.000000 ICntrl=  100127 IOpCl=  0
         NMat0=    1 NMatS0=    1 NMatT0=    0 NMatD0=    1 NMtDS0=    0 NMtDT0=    0
         I1Cent=           0 NGrid=           0.
 Petite list used in FoFCou.
 Leave Link  703 at Sat Aug 17 19:56:20 2024, MaxMem=   13107200 cpu:       0.3
 (Enter /programs/64bit/g09/g09-gfortran/bin/l716.exe)
 Dipole        =-1.10933565D-31-2.40741243D-35 3.65918233D-18
 Polarizability= 4.62841460D+00 2.76958132D-14 4.62841460D+00
                 4.14157285D-10 3.29359582D-11 7.22368303D+00
 Full mass-weighted force constant matrix:
 Low frequencies ---  -85.6099  -85.6099    0.0002    0.0002    0.0002 4360.2041
 Diagonal vibrational polarizability:
        0.0000000       0.0000000       0.0000000
 Harmonic frequencies (cm**-1), IR intensities (KM/Mole), Raman scattering
 activities (A**4/AMU), depolarization ratios for plane and unpolarized
 incident light, reduced masses (AMU), force constants (mDyne/A),
 and normal coordinates:
                     1
                    SGG
 Frequencies --  4360.2041
 Red. masses --     1.0078
 Frc consts  --    11.2888
 IR Inten    --     0.0000
  Atom  AN      X      Y      Z
     1   1    -0.00   0.00   0.71
     2   1     0.00   0.00  -0.71

 -------------------
 - Thermochemistry -
 -------------------
 Temperature   298.150 Kelvin.  Pressure   1.00000 Atm.
 Atom     1 has atomic number  1 and mass   1.00783
 Atom     2 has atomic number  1 and mass   1.00783
 Molecular mass:     2.01565 amu.
 Principal axes and moments of inertia in atomic units:
                           1         2         3
     Eigenvalues --    -0.00000   1.04084   1.04084
           X           -0.00000   1.00000  -0.00000
           Y            0.00000   0.00000   1.00000
           Z            1.00000   0.00000  -0.00000
 This molecule is a prolate symmetric top.
 Rotational symmetry number  2.
 Rotational temperature (Kelvin)     83.21520
 Rotational constant (GHZ):        1733.925594
 Zero-point vibrational energy      26079.8 (Joules/Mol)
                                    6.23322 (Kcal/Mol)
 Vibrational temperatures:   6273.35
          (Kelvin)
 
 Zero-point correction=                           0.009933 (Hartree/Particle)
 Thermal correction to Energy=                    0.012294
 Thermal correction to Enthalpy=                  0.013238
 Thermal correction to Gibbs Free Energy=        -0.001599
 Sum of electronic and zero-point Energies=             -1.164092
 Sum of electronic and thermal Energies=                -1.161731
 Sum of electronic and thermal Enthalpies=              -1.160787
 Sum of electronic and thermal Free Energies=           -1.175624
 
                     E (Thermal)             CV                S
                      KCal/Mol        Cal/Mol-Kelvin    Cal/Mol-Kelvin
 Total                    7.714              4.968             31.226
 Electronic               0.000              0.000              0.000
 Translational            0.889              2.981             28.080
 Rotational               0.592              1.987              3.146
 Vibrational              6.233              0.000              0.000
                       Q            Log10(Q)             Ln(Q)
 Total Bot       0.543626D+01          0.735300          1.693091
 Total V=0       0.201502D+06          5.304280         12.213556
 Vib (Bot)       0.269786D-04         -4.568980        -10.520465
 Vib (V=0)       0.100000D+01          0.000000          0.000000
 Electronic      0.100000D+01          0.000000          0.000000
 Translational   0.112481D+06          5.051078         11.630537
 Rotational      0.179144D+01          0.253202          0.583019
 ***** Axes restored to original set *****
 -------------------------------------------------------------------
 Center     Atomic                   Forces (Hartrees/Bohr)
 Number     Number              X              Y              Z
 -------------------------------------------------------------------
      1        1           0.000000000   -0.000000000   -0.000202425
      2        1          -0.000000000    0.000000000    0.000202425
 -------------------------------------------------------------------
 Cartesian Forces:  Max     0.000202425 RMS     0.000116870
 Force constants in Cartesian coordinates: 
                1             2             3             4             5 
      1 -0.139764D-03
      2  0.000000D+00 -0.139764D-03
      3  0.000000D+00  0.000000D+00  0.362544D+00
      4  0.139764D-03  0.000000D+00  0.000000D+00 -0.139764D-03
      5  0.000000D+00  0.139764D-03  0.000000D+00  0.000000D+00 -0.139764D-03
      6  0.000000D+00  0.000000D+00 -0.362544D+00  0.000000D+00  0.000000D+00
                6 
      6  0.362544D+00
 Force constants in internal coordinates: 
                1 
      1  0.362544D+00
 Leave Link  716 at Sat Aug 17 19:56:20 2024, MaxMem=   13107200 cpu:       0.1
 (Enter /programs/64bit/g09/g09-gfortran/bin/l103.exe)

 GradGradGradGradGradGradGradGradGradGradGradGradGradGradGradGradGradGrad
 Berny optimization.
 Internal  Forces:  Max     0.000202425 RMS     0.000202425
 Search for a local minimum.
 Step number   1 out of a maximum of    2
 All quantities printed in internal units (Hartrees-Bohrs-Radians)
 Second derivative matrix not updated -- analytic derivatives used.
 The second derivative matrix:
                          R1
           R1           0.36254
     Eigenvalues ---    0.36254
 Angle between quadratic step and forces=   0.00 degrees.
 Linear search not attempted -- first point.
 Iteration  1 RMS(Cart)=  0.00039481 RMS(Int)=  0.00000000
 Iteration  2 RMS(Cart)=  0.00000000 RMS(Int)=  0.00000000
 ClnCor:  largest displacement from symmetrization is 1.71D-20 for atom     1.
 Variable       Old X    -DE/DX   Delta X   Delta X   Delta X     New X
                                 (Linear)    (Quad)   (Total)
    R1        1.43719   0.00020   0.00000   0.00056   0.00056   1.43775
         Item               Value     Threshold  Converged?
 Maximum Force            0.000202     0.000450     YES
 RMS     Force            0.000202     0.000300     YES
 Maximum Displacement     0.000279     0.001800     YES
 RMS     Displacement     0.000395     0.001200     YES
 Predicted change in Energy=-5.651185D-08
 Optimization completed.
    -- Stationary point found.
                           ----------------------------
                           !   Optimized Parameters   !
                           ! (Angstroms and Degrees)  !
 --------------------------                            --------------------------
 ! Name  Definition              Value          Derivative Info.                !
 --------------------------------------------------------------------------------
 ! R1    R(1,2)                  0.7605         -DE/DX =    0.0002              !
 --------------------------------------------------------------------------------
 GradGradGradGradGradGradGradGradGradGradGradGradGradGradGradGradGradGrad

 Leave Link  103 at Sat Aug 17 19:56:20 2024, MaxMem=   13107200 cpu:       0.0
 (Enter /programs/64bit/g09/g09-gfortran/bin/l9999.exe)
 1\1\GINC-MOLMOD\Freq\RB3LYP\Aug-CC-pVDZ\H2\OSPITE\17-Aug-2024\0\\#P Ge
 om=AllCheck Guess=TCheck SCRF=Check GenChk RB3LYP/Aug-CC-pVDZ Freq\\hy
 drogen (moldecule) with and aug-cc-pVDZ basis function\\0,1\H,0.,0.,-0
 .0102645147\H,0.,0.,0.7502645147\\Version=EM64L-G09RevA.02\State=1-SGG
 \HF=-1.1740251\RMSD=9.906e-12\RMSF=1.169e-04\ZeroPoint=0.0099333\Therm
 al=0.0122937\Dipole=0.,0.,0.\DipoleDeriv=0.,0.,0.,0.,0.,0.,0.,0.,0.,0.
 ,0.,0.,0.,0.,0.,0.,0.,0.\Polar=4.6284146,0.,4.6284146,0.,0.,7.223683\P
 G=D*H [C*(H1.H1)]\NImag=0\\-0.00013976,0.,-0.00013976,0.,0.,0.36254359
 ,0.00013976,0.,0.,-0.00013976,0.,0.00013976,0.,0.,-0.00013976,0.,0.,-0
 .36254359,0.,0.,0.36254359\\0.,0.,0.00020243,0.,0.,-0.00020243\\\@


 ANYONE WHO IS NOT SHOCKED BY QUANTUM THEORY HAS
 NOT UNDERSTOOD IT. -- NIELS BOHR(1885-1962)
 Job cpu time:  0 days  0 hours  0 minutes  2.8 seconds.
 File lengths (MBytes):  RWF=      5 Int=      0 D2E=      0 Chk=      1 Scr=      1
 Normal termination of Gaussian 09 at Sat Aug 17 19:56:20 2024.
