 Entering Gaussian System, Link 0=/programs/64bit/g09/g09-gfortran/bin/g09
 Input=h2_cc-pVDZ.com
 Output=h2_cc-pVDZ.log
 Initial command:
 /programs/64bit/g09/g09-gfortran/bin/l1.exe /home/ospite/Desktop/MMfP/Project6/H2/g09/DFT/B3LYP/Gau-15379.inp -scrdir=/home/ospite/Desktop/MMfP/Project6/H2/g09/DFT/B3LYP/
 Entering Link 1 = /programs/64bit/g09/g09-gfortran/bin/l1.exe PID=     15380.
  
 Copyright (c) 1988,1990,1992,1993,1995,1998,2003,2009, Gaussian, Inc.
                  All Rights Reserved.
  
 This is part of the Gaussian(R) 09 program.  It is based on
 the Gaussian(R) 03 system (copyright 2003, Gaussian, Inc.),
 the Gaussian(R) 98 system (copyright 1998, Gaussian, Inc.),
 the Gaussian(R) 94 system (copyright 1995, Gaussian, Inc.),
 the Gaussian 92(TM) system (copyright 1992, Gaussian, Inc.),
 the Gaussian 90(TM) system (copyright 1990, Gaussian, Inc.),
 the Gaussian 88(TM) system (copyright 1988, Gaussian, Inc.),
 the Gaussian 86(TM) system (copyright 1986, Carnegie Mellon
 University), and the Gaussian 82(TM) system (copyright 1983,
 Carnegie Mellon University). Gaussian is a federally registered
 trademark of Gaussian, Inc.
  
 This software contains proprietary and confidential information,
 including trade secrets, belonging to Gaussian, Inc.
  
 This software is provided under written license and may be
 used, copied, transmitted, or stored only in accord with that
 written license.
  
 The following legend is applicable only to US Government
 contracts under FAR:
  
                    RESTRICTED RIGHTS LEGEND
  
 Use, reproduction and disclosure by the US Government is
 subject to restrictions as set forth in subparagraphs (a)
 and (c) of the Commercial Computer Software - Restricted
 Rights clause in FAR 52.227-19.
  
 Gaussian, Inc.
 340 Quinnipiac St., Bldg. 40, Wallingford CT 06492
  
  
 ---------------------------------------------------------------
 Warning -- This program may not be used in any manner that
 competes with the business of Gaussian, Inc. or will provide
 assistance to any competitor of Gaussian, Inc.  The licensee
 of this program is prohibited from giving any competitor of
 Gaussian, Inc. access to this program.  By using this program,
 the user acknowledges that Gaussian, Inc. is engaged in the
 business of creating and licensing software in the field of
 computational chemistry and represents and warrants to the
 licensee that it is not a competitor of Gaussian, Inc. and that
 it will not use this program in any manner prohibited above.
 ---------------------------------------------------------------
  

 Cite this work as:
 Gaussian 09, Revision A.02,
 M. J. Frisch, G. W. Trucks, H. B. Schlegel, G. E. Scuseria, 
 M. A. Robb, J. R. Cheeseman, G. Scalmani, V. Barone, B. Mennucci, 
 G. A. Petersson, H. Nakatsuji, M. Caricato, X. Li, H. P. Hratchian, 
 A. F. Izmaylov, J. Bloino, G. Zheng, J. L. Sonnenberg, M. Hada, 
 M. Ehara, K. Toyota, R. Fukuda, J. Hasegawa, M. Ishida, T. Nakajima, 
 Y. Honda, O. Kitao, H. Nakai, T. Vreven, J. A. Montgomery, Jr., 
 J. E. Peralta, F. Ogliaro, M. Bearpark, J. J. Heyd, E. Brothers, 
 K. N. Kudin, V. N. Staroverov, R. Kobayashi, J. Normand, 
 K. Raghavachari, A. Rendell, J. C. Burant, S. S. Iyengar, J. Tomasi, 
 M. Cossi, N. Rega, J. M. Millam, M. Klene, J. E. Knox, J. B. Cross, 
 V. Bakken, C. Adamo, J. Jaramillo, R. Gomperts, R. E. Stratmann, 
 O. Yazyev, A. J. Austin, R. Cammi, C. Pomelli, J. W. Ochterski, 
 R. L. Martin, K. Morokuma, V. G. Zakrzewski, G. A. Voth, 
 P. Salvador, J. J. Dannenberg, S. Dapprich, A. D. Daniels, 
 O. Farkas, J. B. Foresman, J. V. Ortiz, J. Cioslowski, 
 and D. J. Fox, Gaussian, Inc., Wallingford CT, 2009.
 
 ******************************************
 Gaussian 09:  EM64L-G09RevA.02 11-Jun-2009
                17-Aug-2024 
 ******************************************
 %mem=100MB
 ------------------------------------------
 #p b3lyp/cc-pVDZ opt freq pop=full gfinput
 ------------------------------------------
 1/14=-1,18=20,19=15,26=3,38=1/1,3;
 2/9=110,12=2,17=6,18=5,40=1/2;
 3/5=16,11=2,16=1,24=10,25=1,30=1,71=1,74=-5/1,2,3;
 4//1;
 5/5=2,38=5/2;
 6/7=3,28=1/1;
 7//1,2,3,16;
 1/14=-1,18=20,19=15/3(2);
 2/9=110/2;
 99//99;
 2/9=110/2;
 3/5=16,11=2,16=1,25=1,30=1,71=1,74=-5/1,2,3;
 4/5=5,16=3/1;
 5/5=2,38=5/2;
 7//1,2,3,16;
 1/14=-1,18=20,19=15/3(-5);
 2/9=110/2;
 6/7=3,19=2,28=1/1;
 99/9=1/99;
 Leave Link    1 at Sat Aug 17 22:43:14 2024, MaxMem=   13107200 cpu:       0.1
 (Enter /programs/64bit/g09/g09-gfortran/bin/l101.exe)
 -----------------------------------------
 hydogen (molecule) with cc-pVDZ basis set
 -----------------------------------------
 Symbolic Z-matrix:
 Charge =  0 Multiplicity = 1
 H1
 H2                   1    d
       Variables:
  d                     0.74                     
 
 NAtoms=      2 NQM=      2 NQMF=      0 NMic=      0 NMicF=      0 NTot=      2.
                    Isotopes and Nuclear Properties:
 (Nuclear quadrupole moments (NQMom) in fm**2, nuclear magnetic moments (NMagM)
  in nuclear magnetons)

  Atom         1           2
 IAtWgt=           1           1
 AtmWgt=   1.0078250   1.0078250
 NucSpn=           1           1
 AtZEff=   0.0000000   0.0000000
 NQMom=    0.0000000   0.0000000
 NMagM=    2.7928460   2.7928460
 Leave Link  101 at Sat Aug 17 22:43:14 2024, MaxMem=   13107200 cpu:       0.1
 (Enter /programs/64bit/g09/g09-gfortran/bin/l103.exe)

 GradGradGradGradGradGradGradGradGradGradGradGradGradGradGradGradGradGrad
 Berny optimization.
 Initialization pass.
                           ----------------------------
                           !    Initial Parameters    !
                           ! (Angstroms and Degrees)  !
 --------------------------                            --------------------------
 ! Name  Definition              Value          Derivative Info.                !
 --------------------------------------------------------------------------------
 ! R1    R(1,2)                  0.74           estimate D2E/DX2                !
 --------------------------------------------------------------------------------
 Trust Radius=3.00D-01 FncErr=1.00D-07 GrdErr=1.00D-06
 Number of steps in this run=  20 maximum allowed number of steps= 100.
 GradGradGradGradGradGradGradGradGradGradGradGradGradGradGradGradGradGrad

 Leave Link  103 at Sat Aug 17 22:43:14 2024, MaxMem=   13107200 cpu:       0.0
 (Enter /programs/64bit/g09/g09-gfortran/bin/l202.exe)
                          Input orientation:                          
 ---------------------------------------------------------------------
 Center     Atomic      Atomic             Coordinates (Angstroms)
 Number     Number       Type             X           Y           Z
 ---------------------------------------------------------------------
      1          1           0        0.000000    0.000000    0.000000
      2          1           0        0.000000    0.000000    0.740000
 ---------------------------------------------------------------------
 Stoichiometry    H2
 Framework group  D*H[C*(H.H)]
 Deg. of freedom     1
 Full point group                 D*H     NOp   8
 Largest Abelian subgroup         D2H     NOp   8
 Largest concise Abelian subgroup C2      NOp   2
                         Standard orientation:                         
 ---------------------------------------------------------------------
 Center     Atomic      Atomic             Coordinates (Angstroms)
 Number     Number       Type             X           Y           Z
 ---------------------------------------------------------------------
      1          1           0        0.000000    0.000000    0.370000
      2          1           0        0.000000    0.000000   -0.370000
 ---------------------------------------------------------------------
 Rotational constants (GHZ):      0.0000000   1831.4649389   1831.4649389
 Leave Link  202 at Sat Aug 17 22:43:14 2024, MaxMem=   13107200 cpu:       0.0
 (Enter /programs/64bit/g09/g09-gfortran/bin/l301.exe)
 Standard basis: CC-pVDZ (5D, 7F)
 Ernie: Thresh=  0.10000D-02 Tol=  0.10000D-05 Strict=F.
 AO basis set in the form of general basis input (Overlap normalization):
      1 0
 S   3 1.00       0.000000000000
      0.1301000000D+02  0.3349872639D-01
      0.1962000000D+01  0.2348008012D+00
      0.4446000000D+00  0.8136829579D+00
 S   1 1.00       0.000000000000
      0.1220000000D+00  0.1000000000D+01
 P   1 1.00       0.000000000000
      0.7270000000D+00  0.1000000000D+01
 ****
      2 0
 S   3 1.00       0.000000000000
      0.1301000000D+02  0.3349872639D-01
      0.1962000000D+01  0.2348008012D+00
      0.4446000000D+00  0.8136829579D+00
 S   1 1.00       0.000000000000
      0.1220000000D+00  0.1000000000D+01
 P   1 1.00       0.000000000000
      0.7270000000D+00  0.1000000000D+01
 ****

 There are     3 symmetry adapted basis functions of AG  symmetry.
 There are     0 symmetry adapted basis functions of B1G symmetry.
 There are     1 symmetry adapted basis functions of B2G symmetry.
 There are     1 symmetry adapted basis functions of B3G symmetry.
 There are     0 symmetry adapted basis functions of AU  symmetry.
 There are     3 symmetry adapted basis functions of B1U symmetry.
 There are     1 symmetry adapted basis functions of B2U symmetry.
 There are     1 symmetry adapted basis functions of B3U symmetry.
 Integral buffers will be    131072 words long.
 Raffenetti 2 integral format.
 Two-electron integral symmetry is turned on.
    10 basis functions,    14 primitive gaussians,    10 cartesian basis functions
     1 alpha electrons        1 beta electrons
       nuclear repulsion energy         0.7151043359 Hartrees.
 IExCor=  402 DFT=T Ex+Corr=B3LYP ExCW=0 ScaHFX=  0.200000
 ScaDFX=  0.800000  0.720000  1.000000  0.810000 ScalE2=  1.000000  1.000000
 IRadAn=      0 IRanWt=     -1 IRanGd=            0 ICorTp=0
 NAtoms=    2 NActive=    2 NUniq=    1 SFac= 3.00D+00 NAtFMM=   80 NAOKFM=F Big=F
 Leave Link  301 at Sat Aug 17 22:43:15 2024, MaxMem=   13107200 cpu:       0.1
 (Enter /programs/64bit/g09/g09-gfortran/bin/l302.exe)
 NPDir=0 NMtPBC=     1 NCelOv=     1 NCel=       1 NClECP=     1 NCelD=      1
         NCelK=      1 NCelE2=     1 NClLst=     1 CellRange=     0.0.
 One-electron integrals computed using PRISM.
 One-electron integral symmetry used in STVInt
 NBasis=    10 RedAO= T  NBF=     3     0     1     1     0     3     1     1
 NBsUse=    10 1.00D-06 NBFU=     3     0     1     1     0     3     1     1
 Precomputing XC quadrature grid using
 IXCGrd= 2 IRadAn=           0 IRanWt=          -1 IRanGd=           0 AccXCQ= 1.00D-10.
 NRdTot=     122 NPtTot=       15460 NUsed=       16353 NTot=       16385
 NSgBfM=    10    10    10    10    10 NAtAll=     2     2.
 Leave Link  302 at Sat Aug 17 22:43:15 2024, MaxMem=   13107200 cpu:       0.2
 (Enter /programs/64bit/g09/g09-gfortran/bin/l303.exe)
 DipDrv:  MaxL=1.
 Leave Link  303 at Sat Aug 17 22:43:15 2024, MaxMem=   13107200 cpu:       0.0
 (Enter /programs/64bit/g09/g09-gfortran/bin/l401.exe)
 Harris functional with IExCor=  402 diagonalized for initial guess.
 ExpMin= 1.22D-01 ExpMax= 1.30D+01 ExpMxC= 1.30D+01 IAcc=1 IRadAn=         1 AccDes= 0.00D+00
 HarFok:  IExCor=  402 AccDes= 0.00D+00 IRadAn=         1 IDoV= 1
 ScaDFX=  1.000000  1.000000  1.000000  1.000000
 FoFCou: FMM=F IPFlag=           0 FMFlag=      100000 FMFlg1=           0
         NFxFlg=           0 DoJE=T BraDBF=F KetDBF=T FulRan=T
         Omega=  0.000000  0.000000  1.000000  0.000000  0.000000 ICntrl=     500 IOpCl=  0
         NMat0=    1 NMatS0=    1 NMatT0=    0 NMatD0=    1 NMtDS0=    0 NMtDT0=    0
         I1Cent=           4 NGrid=           0.
 Petite list used in FoFCou.
 Harris En= -1.17795007083135    
 Initial guess orbital symmetries:
       Occupied  (SGG)
       Virtual   (SGU) (SGG) (SGU) (PIU) (PIU) (SGG) (PIG) (PIG)
                 (SGU)
 The electronic state of the initial guess is 1-SGG.
 Leave Link  401 at Sat Aug 17 22:43:15 2024, MaxMem=   13107200 cpu:       0.2
 (Enter /programs/64bit/g09/g09-gfortran/bin/l502.exe)
 Closed shell SCF:
 Requested convergence on RMS density matrix=1.00D-08 within 128 cycles.
 Requested convergence on MAX density matrix=1.00D-06.
 Requested convergence on             energy=1.00D-06.
 No special actions if energy rises.
 Using DIIS extrapolation, IDIIS=  1040.
 Integral symmetry usage will be decided dynamically.
        16322 words used for storage of precomputed grid.
 Keep R1 ints in memory in canonical form, NReq=895019.
 IEnd=       36115 IEndB=       36115 NGot=    13107200 MDV=    13086620
 LenX=    13086620 LenY=    13085738
 Symmetry not used in FoFDir.
 MinBra= 0 MaxBra= 1 Meth= 1.
 IRaf=       0 NMat=   1 IRICut=       1 DoRegI=T DoRafI=F ISym2E= 0 JSym2E=0.
 Integral accuracy reduced to 1.0D-05 until final iterations.

 Cycle   1  Pass 0  IDiag  1:
 E= -1.16849085753227    
 DIIS: error= 1.94D-02 at cycle   1 NSaved=   1.
 NSaved= 1 IEnMin= 1 EnMin= -1.16849085753227     IErMin= 1 ErrMin= 1.94D-02
 ErrMax= 1.94D-02 EMaxC= 1.00D-01 BMatC= 2.24D-03 BMatP= 2.24D-03
 IDIUse=3 WtCom= 8.06D-01 WtEn= 1.94D-01
 Coeff-Com:  0.100D+01
 Coeff-En:   0.100D+01
 Coeff:      0.100D+01
 Gap=     0.494 Goal=   None    Shift=    0.000
 GapD=    0.494 DampG=2.000 DampE=0.500 DampFc=1.0000 IDamp=-1.
 RMSDP=7.81D-03 MaxDP=3.23D-02              OVMax= 6.04D-02

 Cycle   2  Pass 0  IDiag  1:
 E= -1.17311205240792     Delta-E=       -0.004621194876 Rises=F Damp=F
 DIIS: error= 4.37D-03 at cycle   2 NSaved=   2.
 NSaved= 2 IEnMin= 2 EnMin= -1.17311205240792     IErMin= 2 ErrMin= 4.37D-03
 ErrMax= 4.37D-03 EMaxC= 1.00D-01 BMatC= 9.15D-05 BMatP= 2.24D-03
 IDIUse=3 WtCom= 9.56D-01 WtEn= 4.37D-02
 Coeff-Com:  0.166D+00 0.834D+00
 Coeff-En:   0.000D+00 0.100D+01
 Coeff:      0.159D+00 0.841D+00
 Gap=     0.506 Goal=   None    Shift=    0.000
 RMSDP=1.11D-03 MaxDP=4.52D-03 DE=-4.62D-03 OVMax= 9.22D-03

 Cycle   3  Pass 0  IDiag  1:
 E= -1.17328238293984     Delta-E=       -0.000170330532 Rises=F Damp=F
 DIIS: error= 4.61D-05 at cycle   3 NSaved=   3.
 NSaved= 3 IEnMin= 3 EnMin= -1.17328238293984     IErMin= 3 ErrMin= 4.61D-05
 ErrMax= 4.61D-05 EMaxC= 1.00D-01 BMatC= 9.15D-09 BMatP= 9.15D-05
 IDIUse=1 WtCom= 1.00D+00 WtEn= 0.00D+00
 Coeff-Com: -0.105D-01-0.498D-01 0.106D+01
 Coeff:     -0.105D-01-0.498D-01 0.106D+01
 Gap=     0.506 Goal=   None    Shift=    0.000
 RMSDP=1.26D-05 MaxDP=5.41D-05 DE=-1.70D-04 OVMax= 6.91D-05

 Cycle   4  Pass 0  IDiag  1:
 E= -1.17328239688788     Delta-E=       -0.000000013948 Rises=F Damp=F
 DIIS: error= 5.18D-07 at cycle   4 NSaved=   4.
 NSaved= 4 IEnMin= 4 EnMin= -1.17328239688788     IErMin= 4 ErrMin= 5.18D-07
 ErrMax= 5.18D-07 EMaxC= 1.00D-01 BMatC= 1.20D-12 BMatP= 9.15D-09
 IDIUse=1 WtCom= 1.00D+00 WtEn= 0.00D+00
 Coeff-Com:  0.271D-05-0.517D-04 0.836D-02 0.992D+00
 Coeff:      0.271D-05-0.517D-04 0.836D-02 0.992D+00
 Gap=     0.506 Goal=   None    Shift=    0.000
 RMSDP=1.75D-07 MaxDP=7.57D-07 DE=-1.39D-08 OVMax= 1.19D-06

 Initial convergence to 1.0D-05 achieved.  Increase integral accuracy.
 Cycle   5  Pass 1  IDiag  1:
 E= -1.17328116505741     Delta-E=        0.000001231830 Rises=F Damp=F
 DIIS: error= 5.51D-07 at cycle   1 NSaved=   1.
 NSaved= 1 IEnMin= 1 EnMin= -1.17328116505741     IErMin= 1 ErrMin= 5.51D-07
 ErrMax= 5.51D-07 EMaxC= 1.00D-01 BMatC= 2.00D-12 BMatP= 2.00D-12
 IDIUse=1 WtCom= 1.00D+00 WtEn= 0.00D+00
 Coeff-Com:  0.100D+01
 Coeff:      0.100D+01
 Gap=     0.506 Goal=   None    Shift=    0.000
 RMSDP=1.75D-07 MaxDP=7.57D-07 DE= 1.23D-06 OVMax= 1.87D-06

 Cycle   6  Pass 1  IDiag  1:
 E= -1.17328116506179     Delta-E=       -0.000000000004 Rises=F Damp=F
 DIIS: error= 1.37D-07 at cycle   2 NSaved=   2.
 NSaved= 2 IEnMin= 2 EnMin= -1.17328116506179     IErMin= 2 ErrMin= 1.37D-07
 ErrMax= 1.37D-07 EMaxC= 1.00D-01 BMatC= 8.48D-14 BMatP= 2.00D-12
 IDIUse=1 WtCom= 1.00D+00 WtEn= 0.00D+00
 Coeff-Com:  0.154D+00 0.846D+00
 Coeff:      0.154D+00 0.846D+00
 Gap=     0.506 Goal=   None    Shift=    0.000
 RMSDP=3.21D-08 MaxDP=1.28D-07 DE=-4.38D-12 OVMax= 2.69D-07

 Cycle   7  Pass 1  IDiag  1:
 E= -1.17328116506194     Delta-E=       -0.000000000000 Rises=F Damp=F
 DIIS: error= 3.11D-09 at cycle   3 NSaved=   3.
 NSaved= 3 IEnMin= 3 EnMin= -1.17328116506194     IErMin= 3 ErrMin= 3.11D-09
 ErrMax= 3.11D-09 EMaxC= 1.00D-01 BMatC= 4.60D-17 BMatP= 8.48D-14
 IDIUse=1 WtCom= 1.00D+00 WtEn= 0.00D+00
 Coeff-Com: -0.903D-02-0.390D-01 0.105D+01
 Coeff:     -0.903D-02-0.390D-01 0.105D+01
 Gap=     0.506 Goal=   None    Shift=    0.000
 RMSDP=7.88D-10 MaxDP=3.35D-09 DE=-1.50D-13 OVMax= 3.92D-09

 SCF Done:  E(RB3LYP) =  -1.17328116506     A.U. after    7 cycles
             Convg  =    0.7877D-09             -V/T =  2.0651
 KE= 1.101548842038D+00 PE=-3.604755987463D+00 EE= 6.148216444301D-01
 Leave Link  502 at Sat Aug 17 22:43:15 2024, MaxMem=   13107200 cpu:       0.1
 (Enter /programs/64bit/g09/g09-gfortran/bin/l601.exe)
 Copying SCF densities to generalized density rwf, IOpCl= 0 IROHF=0.

 **********************************************************************

            Population analysis using the SCF density.

 **********************************************************************

 Orbital symmetries:
       Occupied  (SGG)
       Virtual   (SGU) (SGG) (SGU) (PIU) (PIU) (SGG) (PIG) (PIG)
                 (SGU)
 The electronic state is 1-SGG.
 Alpha  occ. eigenvalues --   -0.43008
 Alpha virt. eigenvalues --    0.07548   0.32840   0.70910   1.04887   1.04887
 Alpha virt. eigenvalues --    1.68302   1.77847   1.77847   3.26477
     Molecular Orbital Coefficients:
                           1         2         3         4         5
                       (SGG)--O  (SGU)--V  (SGG)--V  (SGU)--V  (PIU)--V
     Eigenvalues --    -0.43008   0.07548   0.32840   0.70910   1.04887
   1 1   H  1S          0.40778   0.21865  -0.69410  -0.81326   0.00000
   2        2S          0.17072   1.82598   0.72431   1.76428   0.00000
   3        3PX         0.00000   0.00000   0.00000   0.00000   0.00000
   4        3PY         0.00000   0.00000   0.00000   0.00000   0.57904
   5        3PZ        -0.01878   0.01099   0.01928  -0.35942   0.00000
   6 2   H  1S          0.40778  -0.21865  -0.69410   0.81326   0.00000
   7        2S          0.17072  -1.82598   0.72431  -1.76428   0.00000
   8        3PX         0.00000   0.00000   0.00000   0.00000   0.00000
   9        3PY         0.00000   0.00000   0.00000   0.00000   0.57904
  10        3PZ         0.01878   0.01099  -0.01928  -0.35942   0.00000
                           6         7         8         9        10
                       (PIU)--V  (SGG)--V  (PIG)--V  (PIG)--V  (SGU)--V
     Eigenvalues --     1.04887   1.68302   1.77847   1.77847   3.26477
   1 1   H  1S          0.00000   0.44937   0.00000   0.00000   2.66600
   2        2S          0.00000  -0.23001   0.00000   0.00000   0.08832
   3        3PX         0.57904   0.00000   0.99135   0.00000   0.00000
   4        3PY         0.00000   0.00000   0.00000   0.99135   0.00000
   5        3PZ         0.00000   0.72684   0.00000   0.00000  -2.03640
   6 2   H  1S          0.00000   0.44937   0.00000   0.00000  -2.66600
   7        2S          0.00000  -0.23001   0.00000   0.00000  -0.08832
   8        3PX         0.57904   0.00000  -0.99135   0.00000   0.00000
   9        3PY         0.00000   0.00000   0.00000  -0.99135   0.00000
  10        3PZ         0.00000  -0.72684   0.00000   0.00000  -2.03640
     Density Matrix:
                           1         2         3         4         5
   1 1   H  1S          0.33257
   2        2S          0.13923   0.05829
   3        3PX        -0.00000  -0.00000   0.00000
   4        3PY        -0.00000  -0.00000   0.00000   0.00000
   5        3PZ        -0.01531  -0.00641   0.00000   0.00000   0.00071
   6 2   H  1S          0.33257   0.13923  -0.00000  -0.00000  -0.01531
   7        2S          0.13923   0.05829  -0.00000  -0.00000  -0.00641
   8        3PX         0.00000   0.00000  -0.00000  -0.00000  -0.00000
   9        3PY         0.00000   0.00000  -0.00000  -0.00000  -0.00000
  10        3PZ         0.01531   0.00641  -0.00000  -0.00000  -0.00071
                           6         7         8         9        10
   6 2   H  1S          0.33257
   7        2S          0.13923   0.05829
   8        3PX         0.00000   0.00000   0.00000
   9        3PY         0.00000   0.00000   0.00000   0.00000
  10        3PZ         0.01531   0.00641   0.00000   0.00000   0.00071
    Full Mulliken population analysis:
                           1         2         3         4         5
   1 1   H  1S          0.33257
   2        2S          0.09535   0.05829
   3        3PX         0.00000   0.00000   0.00000
   4        3PY         0.00000   0.00000   0.00000   0.00000
   5        3PZ         0.00000   0.00000   0.00000   0.00000   0.00071
   6 2   H  1S          0.18980   0.07874   0.00000   0.00000   0.00823
   7        2S          0.07874   0.05173   0.00000   0.00000   0.00105
   8        3PX         0.00000   0.00000  -0.00000   0.00000   0.00000
   9        3PY         0.00000   0.00000   0.00000  -0.00000   0.00000
  10        3PZ         0.00823   0.00105   0.00000   0.00000   0.00015
                           6         7         8         9        10
   6 2   H  1S          0.33257
   7        2S          0.09535   0.05829
   8        3PX         0.00000   0.00000   0.00000
   9        3PY         0.00000   0.00000   0.00000   0.00000
  10        3PZ         0.00000   0.00000   0.00000   0.00000   0.00071
     Gross orbital populations:
                           1
   1 1   H  1S          0.70470
   2        2S          0.28517
   3        3PX         0.00000
   4        3PY         0.00000
   5        3PZ         0.01014
   6 2   H  1S          0.70470
   7        2S          0.28517
   8        3PX         0.00000
   9        3PY         0.00000
  10        3PZ         0.01014
          Condensed to atoms (all electrons):
              1          2
     1  H    0.582271   0.417729
     2  H    0.417729   0.582271
 Mulliken atomic charges:
              1
     1  H   -0.000000
     2  H   -0.000000
 Sum of Mulliken atomic charges =  -0.00000
 Mulliken charges with hydrogens summed into heavy atoms:
              1
 Sum of Mulliken charges with hydrogens summed into heavy atoms =  -0.00000
 Electronic spatial extent (au):  <R**2>=              5.0474
 Charge=             -0.0000 electrons
 Dipole moment (field-independent basis, Debye):
    X=             -0.0000    Y=             -0.0000    Z=              0.0000  Tot=              0.0000
 Quadrupole moment (field-independent basis, Debye-Ang):
   XX=             -2.0141   YY=             -2.0141   ZZ=             -1.4456
   XY=             -0.0000   XZ=             -0.0000   YZ=              0.0000
 Traceless Quadrupole moment (field-independent basis, Debye-Ang):
   XX=             -0.1895   YY=             -0.1895   ZZ=              0.3790
   XY=             -0.0000   XZ=             -0.0000   YZ=              0.0000
 Octapole moment (field-independent basis, Debye-Ang**2):
  XXX=             -0.0000  YYY=              0.0000  ZZZ=              0.0000  XYY=             -0.0000
  XXY=              0.0000  XXZ=             -0.0000  XZZ=             -0.0000  YZZ=              0.0000
  YYZ=              0.0000  XYZ=              0.0000
 Hexadecapole moment (field-independent basis, Debye-Ang**3):
 XXXX=             -1.8727 YYYY=             -1.8727 ZZZZ=             -2.7054 XXXY=             -0.0000
 XXXZ=              0.0000 YYYX=             -0.0000 YYYZ=              0.0000 ZZZX=              0.0000
 ZZZY=              0.0000 XXYY=             -0.6242 XXZZ=             -0.7793 YYZZ=             -0.7793
 XXYZ=              0.0000 YYXZ=              0.0000 ZZXY=             -0.0000
 N-N= 7.151043359324D-01 E-N=-3.604755985792D+00  KE= 1.101548842038D+00
 Symmetry AG   KE= 1.101548842038D+00
 Symmetry B1G  KE= 0.000000000000D+00
 Symmetry B2G  KE= 3.136387981502D-34
 Symmetry B3G  KE= 3.136387981502D-34
 Symmetry AU   KE= 0.000000000000D+00
 Symmetry B1U  KE= 3.094026795756D-32
 Symmetry B2U  KE= 6.329375443483D-35
 Symmetry B3U  KE= 6.329375443483D-35
 Orbital energies and kinetic energies (alpha):
                                 1                 2
   1         (SGG)--O         -0.430084          0.550774
   2         (SGU)--V          0.075484          0.393032
   3         (SGG)--V          0.328404          0.880230
   4         (SGU)--V          0.709101          1.627451
   5         (PIU)--V          1.048872          1.647267
   6         (PIU)--V          1.048872          1.647267
   7         (SGG)--V          1.683018          2.349155
   8         (PIG)--V          1.778475          2.316470
   9         (PIG)--V          1.778475          2.316470
  10         (SGU)--V          3.264775          4.622685
 Total kinetic energy from orbitals= 1.101548842038D+00
 No NMR shielding tensors so no spin-rotation constants.
 Leave Link  601 at Sat Aug 17 22:43:15 2024, MaxMem=   13107200 cpu:       0.1
 (Enter /programs/64bit/g09/g09-gfortran/bin/l701.exe)
 Compute integral first derivatives.
 ... and contract with generalized density number  0.
 Leave Link  701 at Sat Aug 17 22:43:16 2024, MaxMem=   13107200 cpu:       0.1
 (Enter /programs/64bit/g09/g09-gfortran/bin/l702.exe)
 L702 exits ... SP integral derivatives will be done elsewhere.
 Leave Link  702 at Sat Aug 17 22:43:16 2024, MaxMem=   13107200 cpu:       0.0
 (Enter /programs/64bit/g09/g09-gfortran/bin/l703.exe)
 Compute integral first derivatives, UseDBF=F ICtDFT=           0.
 Integral derivatives from FoFDir, PRISM(SPDF).
 Calling FoFJK, ICntrl=      2127 FMM=F ISym2X=1 I1Cent= 0 IOpClX= 0 NMat=1 NMatS=1 NMatT=0.
 FoFCou: FMM=F IPFlag=           0 FMFlag=      100000 FMFlg1=         800
         NFxFlg=           0 DoJE=F BraDBF=F KetDBF=F FulRan=T
         Omega=  0.000000  0.000000  1.000000  0.000000  0.000000 ICntrl=    2127 IOpCl=  0
         NMat0=    1 NMatS0=    1 NMatT0=    0 NMatD0=    1 NMtDS0=    0 NMtDT0=    0
         I1Cent=           0 NGrid=           0.
 Petite list used in FoFCou.
 Leave Link  703 at Sat Aug 17 22:43:16 2024, MaxMem=   13107200 cpu:       0.1
 (Enter /programs/64bit/g09/g09-gfortran/bin/l716.exe)
 Dipole        =-6.16297582D-32-4.81482486D-35 0.00000000D+00
 ***** Axes restored to original set *****
 -------------------------------------------------------------------
 Center     Atomic                   Forces (Hartrees/Bohr)
 Number     Number              X              Y              Z
 -------------------------------------------------------------------
      1        1           0.000000000    0.000000000   -0.015995846
      2        1          -0.000000000   -0.000000000    0.015995846
 -------------------------------------------------------------------
 Cartesian Forces:  Max     0.015995846 RMS     0.009235206
 Leave Link  716 at Sat Aug 17 22:43:16 2024, MaxMem=   13107200 cpu:       0.0
 (Enter /programs/64bit/g09/g09-gfortran/bin/l103.exe)

 GradGradGradGradGradGradGradGradGradGradGradGradGradGradGradGradGradGrad
 Berny optimization.
 Internal  Forces:  Max     0.015995846 RMS     0.015995846
 Search for a local minimum.
 Step number   1 out of a maximum of   20
 All quantities printed in internal units (Hartrees-Bohrs-Radians)
 RMS Force = .15996D-01 SwitMx=.10000D-02 MixMth= 1
 Mixed Optimization -- RFO/linear search
 Second derivative matrix not updated -- first step.
 The second derivative matrix:
                          R1
           R1           0.39139
     Eigenvalues ---    0.39139
 RFO step:  Lambda=-6.52644168D-04 EMin= 3.91394209D-01
 Linear search not attempted -- first point.
 Iteration  1 RMS(Cart)=  0.02885056 RMS(Int)=  0.00000000
 Iteration  2 RMS(Cart)=  0.00000000 RMS(Int)=  0.00000000
 ClnCor:  largest displacement from symmetrization is 1.25D-18 for atom     2.
 Variable       Old X    -DE/DX   Delta X   Delta X   Delta X     New X
                                 (Linear)    (Quad)   (Total)
    R1        1.39840   0.01600   0.00000   0.04080   0.04080   1.43920
         Item               Value     Threshold  Converged?
 Maximum Force            0.015996     0.000450     NO 
 RMS     Force            0.015996     0.000300     NO 
 Maximum Displacement     0.020400     0.001800     NO 
 RMS     Displacement     0.028851     0.001200     NO 
 Predicted change in Energy=-3.268653D-04
 GradGradGradGradGradGradGradGradGradGradGradGradGradGradGradGradGradGrad

 Leave Link  103 at Sat Aug 17 22:43:16 2024, MaxMem=   13107200 cpu:       0.0
 (Enter /programs/64bit/g09/g09-gfortran/bin/l202.exe)
                          Input orientation:                          
 ---------------------------------------------------------------------
 Center     Atomic      Atomic             Coordinates (Angstroms)
 Number     Number       Type             X           Y           Z
 ---------------------------------------------------------------------
      1          1           0        0.000000    0.000000   -0.010795
      2          1           0        0.000000    0.000000    0.750795
 ---------------------------------------------------------------------
 Stoichiometry    H2
 Framework group  D*H[C*(H.H)]
 Deg. of freedom     1
 Full point group                 D*H     NOp   8
 Largest Abelian subgroup         D2H     NOp   8
 Largest concise Abelian subgroup C2      NOp   2
                         Standard orientation:                         
 ---------------------------------------------------------------------
 Center     Atomic      Atomic             Coordinates (Angstroms)
 Number     Number       Type             X           Y           Z
 ---------------------------------------------------------------------
      1          1           0        0.000000    0.000000    0.380795
      2          1           0        0.000000    0.000000   -0.380795
 ---------------------------------------------------------------------
 Rotational constants (GHZ):      0.0000000   1729.0938941   1729.0938941
 Leave Link  202 at Sat Aug 17 22:43:16 2024, MaxMem=   13107200 cpu:       0.0
 (Enter /programs/64bit/g09/g09-gfortran/bin/l301.exe)
 Standard basis: CC-pVDZ (5D, 7F)
 Ernie: Thresh=  0.10000D-02 Tol=  0.10000D-05 Strict=F.
 There are     3 symmetry adapted basis functions of AG  symmetry.
 There are     0 symmetry adapted basis functions of B1G symmetry.
 There are     1 symmetry adapted basis functions of B2G symmetry.
 There are     1 symmetry adapted basis functions of B3G symmetry.
 There are     0 symmetry adapted basis functions of AU  symmetry.
 There are     3 symmetry adapted basis functions of B1U symmetry.
 There are     1 symmetry adapted basis functions of B2U symmetry.
 There are     1 symmetry adapted basis functions of B3U symmetry.
 Integral buffers will be    131072 words long.
 Raffenetti 2 integral format.
 Two-electron integral symmetry is turned on.
    10 basis functions,    14 primitive gaussians,    10 cartesian basis functions
     1 alpha electrons        1 beta electrons
       nuclear repulsion energy         0.6948313345 Hartrees.
 IExCor=  402 DFT=T Ex+Corr=B3LYP ExCW=0 ScaHFX=  0.200000
 ScaDFX=  0.800000  0.720000  1.000000  0.810000 ScalE2=  1.000000  1.000000
 IRadAn=      0 IRanWt=     -1 IRanGd=            0 ICorTp=0
 NAtoms=    2 NActive=    2 NUniq=    1 SFac= 3.00D+00 NAtFMM=   80 NAOKFM=F Big=F
 Leave Link  301 at Sat Aug 17 22:43:16 2024, MaxMem=   13107200 cpu:       0.1
 (Enter /programs/64bit/g09/g09-gfortran/bin/l302.exe)
 NPDir=0 NMtPBC=     1 NCelOv=     1 NCel=       1 NClECP=     1 NCelD=      1
         NCelK=      1 NCelE2=     1 NClLst=     1 CellRange=     0.0.
 One-electron integrals computed using PRISM.
 One-electron integral symmetry used in STVInt
 NBasis=    10 RedAO= T  NBF=     3     0     1     1     0     3     1     1
 NBsUse=    10 1.00D-06 NBFU=     3     0     1     1     0     3     1     1
 Precomputing XC quadrature grid using
 IXCGrd= 2 IRadAn=           0 IRanWt=          -1 IRanGd=           0 AccXCQ= 1.00D-10.
 NRdTot=     122 NPtTot=       15460 NUsed=       16353 NTot=       16385
 NSgBfM=    10    10    10    10    10 NAtAll=     2     2.
 Leave Link  302 at Sat Aug 17 22:43:16 2024, MaxMem=   13107200 cpu:       0.1
 (Enter /programs/64bit/g09/g09-gfortran/bin/l303.exe)
 DipDrv:  MaxL=1.
 Leave Link  303 at Sat Aug 17 22:43:16 2024, MaxMem=   13107200 cpu:       0.0
 (Enter /programs/64bit/g09/g09-gfortran/bin/l401.exe)
 Initial guess read from the read-write file.
 B after Tr=     0.000000    0.000000    0.000000
         Rot=    1.000000    0.000000    0.000000    0.000000 Ang=   0.00 deg.
 Guess basis will be translated and rotated to current coordinates.
 Initial guess orbital symmetries:
       Occupied  (SGG)
       Virtual   (SGU) (SGG) (SGU) (PIU) (PIU) (SGG) (PIG) (PIG)
                 (SGU)
 The electronic state of the initial guess is 1-SGG.
 Generating alternative initial guess.
 Harris functional with IExCor=  402 diagonalized for initial guess.
 ExpMin= 1.22D-01 ExpMax= 1.30D+01 ExpMxC= 1.30D+01 IAcc=1 IRadAn=         1 AccDes= 0.00D+00
 HarFok:  IExCor=  402 AccDes= 0.00D+00 IRadAn=         1 IDoV= 1
 ScaDFX=  1.000000  1.000000  1.000000  1.000000
 FoFCou: FMM=F IPFlag=           0 FMFlag=      100000 FMFlg1=           0
         NFxFlg=           0 DoJE=T BraDBF=F KetDBF=T FulRan=T
         Omega=  0.000000  0.000000  1.000000  0.000000  0.000000 ICntrl=     500 IOpCl=  0
         NMat0=    1 NMatS0=    1 NMatT0=    0 NMatD0=    1 NMtDS0=    0 NMtDT0=    0
         I1Cent=           4 NGrid=           0.
 Petite list used in FoFCou.
 Harris En= -1.17719968423457    
 Leave Link  401 at Sat Aug 17 22:43:17 2024, MaxMem=   13107200 cpu:       0.2
 (Enter /programs/64bit/g09/g09-gfortran/bin/l502.exe)
 Closed shell SCF:
 Requested convergence on RMS density matrix=1.00D-08 within 128 cycles.
 Requested convergence on MAX density matrix=1.00D-06.
 Requested convergence on             energy=1.00D-06.
 No special actions if energy rises.
 Using DIIS extrapolation, IDIIS=  1040.
 Integral symmetry usage will be decided dynamically.
        16322 words used for storage of precomputed grid.
 Keep R1 ints in memory in canonical form, NReq=895019.
 IEnd=       36115 IEndB=       36115 NGot=    13107200 MDV=    13086620
 LenX=    13086620 LenY=    13085738
 Symmetry not used in FoFDir.
 MinBra= 0 MaxBra= 1 Meth= 1.
 IRaf=       0 NMat=   1 IRICut=       1 DoRegI=T DoRafI=F ISym2E= 0 JSym2E=0.
 Integral accuracy reduced to 1.0D-05 until final iterations.

 Cycle   1  Pass 0  IDiag  1:
 E= -1.17354957363405    
 DIIS: error= 2.13D-03 at cycle   1 NSaved=   1.
 NSaved= 1 IEnMin= 1 EnMin= -1.17354957363405     IErMin= 1 ErrMin= 2.13D-03
 ErrMax= 2.13D-03 EMaxC= 1.00D-01 BMatC= 2.62D-05 BMatP= 2.62D-05
 IDIUse=3 WtCom= 9.79D-01 WtEn= 2.13D-02
 Coeff-Com:  0.100D+01
 Coeff-En:   0.100D+01
 Coeff:      0.100D+01
 Gap=     0.498 Goal=   None    Shift=    0.000
 GapD=    0.498 DampG=2.000 DampE=1.000 DampFc=2.0000 IDamp=-1.
 RMSDP=8.01D-04 MaxDP=3.32D-03              OVMax= 6.35D-03

 Cycle   2  Pass 0  IDiag  1:
 E= -1.17360158040234     Delta-E=       -0.000052006768 Rises=F Damp=F
 DIIS: error= 4.59D-04 at cycle   2 NSaved=   2.
 NSaved= 2 IEnMin= 2 EnMin= -1.17360158040234     IErMin= 2 ErrMin= 4.59D-04
 ErrMax= 4.59D-04 EMaxC= 1.00D-01 BMatC= 1.04D-06 BMatP= 2.62D-05
 IDIUse=3 WtCom= 9.95D-01 WtEn= 4.59D-03
 Coeff-Com:  0.165D+00 0.835D+00
 Coeff-En:   0.000D+00 0.100D+01
 Coeff:      0.164D+00 0.836D+00
 Gap=     0.496 Goal=   None    Shift=    0.000
 RMSDP=1.20D-04 MaxDP=4.86D-04 DE=-5.20D-05 OVMax= 9.80D-04

 Cycle   3  Pass 0  IDiag  1:
 E= -1.17360352762791     Delta-E=       -0.000001947226 Rises=F Damp=F
 DIIS: error= 4.24D-06 at cycle   3 NSaved=   3.
 NSaved= 3 IEnMin= 3 EnMin= -1.17360352762791     IErMin= 3 ErrMin= 4.24D-06
 ErrMax= 4.24D-06 EMaxC= 1.00D-01 BMatC= 8.82D-11 BMatP= 1.04D-06
 IDIUse=1 WtCom= 1.00D+00 WtEn= 0.00D+00
 Coeff-Com: -0.915D-02-0.521D-01 0.106D+01
 Coeff:     -0.915D-02-0.521D-01 0.106D+01
 Gap=     0.496 Goal=   None    Shift=    0.000
 RMSDP=4.17D-07 MaxDP=1.29D-06 DE=-1.95D-06 OVMax= 2.05D-06

 Initial convergence to 1.0D-05 achieved.  Increase integral accuracy.
 Cycle   4  Pass 1  IDiag  1:
 E= -1.17360207892454     Delta-E=        0.000001448703 Rises=F Damp=F
 DIIS: error= 5.64D-07 at cycle   1 NSaved=   1.
 NSaved= 1 IEnMin= 1 EnMin= -1.17360207892454     IErMin= 1 ErrMin= 5.64D-07
 ErrMax= 5.64D-07 EMaxC= 1.00D-01 BMatC= 2.27D-12 BMatP= 2.27D-12
 IDIUse=1 WtCom= 1.00D+00 WtEn= 0.00D+00
 Coeff-Com:  0.100D+01
 Coeff:      0.100D+01
 Gap=     0.496 Goal=   None    Shift=    0.000
 RMSDP=4.17D-07 MaxDP=1.29D-06 DE= 1.45D-06 OVMax= 1.98D-06

 Cycle   5  Pass 1  IDiag  1:
 E= -1.17360207892947     Delta-E=       -0.000000000005 Rises=F Damp=F
 DIIS: error= 1.43D-07 at cycle   2 NSaved=   2.
 NSaved= 2 IEnMin= 2 EnMin= -1.17360207892947     IErMin= 2 ErrMin= 1.43D-07
 ErrMax= 1.43D-07 EMaxC= 1.00D-01 BMatC= 9.55D-14 BMatP= 2.27D-12
 IDIUse=1 WtCom= 1.00D+00 WtEn= 0.00D+00
 Coeff-Com:  0.158D+00 0.842D+00
 Coeff:      0.158D+00 0.842D+00
 Gap=     0.496 Goal=   None    Shift=    0.000
 RMSDP=3.46D-08 MaxDP=1.39D-07 DE=-4.93D-12 OVMax= 2.88D-07

 Cycle   6  Pass 1  IDiag  1:
 E= -1.17360207892964     Delta-E=       -0.000000000000 Rises=F Damp=F
 DIIS: error= 2.63D-09 at cycle   3 NSaved=   3.
 NSaved= 3 IEnMin= 3 EnMin= -1.17360207892964     IErMin= 3 ErrMin= 2.63D-09
 ErrMax= 2.63D-09 EMaxC= 1.00D-01 BMatC= 4.15D-17 BMatP= 9.55D-14
 IDIUse=1 WtCom= 1.00D+00 WtEn= 0.00D+00
 Coeff-Com: -0.893D-02-0.441D-01 0.105D+01
 Coeff:     -0.893D-02-0.441D-01 0.105D+01
 Gap=     0.496 Goal=   None    Shift=    0.000
 RMSDP=6.12D-10 MaxDP=2.53D-09 DE=-1.72D-13 OVMax= 2.45D-09

 SCF Done:  E(RB3LYP) =  -1.17360207893     A.U. after    6 cycles
             Convg  =    0.6124D-09             -V/T =  2.0826
 KE= 1.084016985742D+00 PE=-3.559724558252D+00 EE= 6.072741590915D-01
 Leave Link  502 at Sat Aug 17 22:43:17 2024, MaxMem=   13107200 cpu:       0.1
 (Enter /programs/64bit/g09/g09-gfortran/bin/l701.exe)
 Compute integral first derivatives.
 ... and contract with generalized density number  0.
 Leave Link  701 at Sat Aug 17 22:43:17 2024, MaxMem=   13107200 cpu:       0.1
 (Enter /programs/64bit/g09/g09-gfortran/bin/l702.exe)
 L702 exits ... SP integral derivatives will be done elsewhere.
 Leave Link  702 at Sat Aug 17 22:43:17 2024, MaxMem=   13107200 cpu:       0.0
 (Enter /programs/64bit/g09/g09-gfortran/bin/l703.exe)
 Compute integral first derivatives, UseDBF=F ICtDFT=           0.
 Integral derivatives from FoFDir, PRISM(SPDF).
 Calling FoFJK, ICntrl=      2127 FMM=F ISym2X=1 I1Cent= 0 IOpClX= 0 NMat=1 NMatS=1 NMatT=0.
 FoFCou: FMM=F IPFlag=           0 FMFlag=      100000 FMFlg1=         800
         NFxFlg=           0 DoJE=F BraDBF=F KetDBF=F FulRan=T
         Omega=  0.000000  0.000000  1.000000  0.000000  0.000000 ICntrl=    2127 IOpCl=  0
         NMat0=    1 NMatS0=    1 NMatT0=    0 NMatD0=    1 NMtDS0=    0 NMtDT0=    0
         I1Cent=           0 NGrid=           0.
 Petite list used in FoFCou.
 Leave Link  703 at Sat Aug 17 22:43:17 2024, MaxMem=   13107200 cpu:       0.1
 (Enter /programs/64bit/g09/g09-gfortran/bin/l716.exe)
 Dipole        =-1.35585468D-31-4.81482486D-35 1.11022302D-16
 ***** Axes restored to original set *****
 -------------------------------------------------------------------
 Center     Atomic                   Forces (Hartrees/Bohr)
 Number     Number              X              Y              Z
 -------------------------------------------------------------------
      1        1           0.000000000    0.000000000   -0.000091099
      2        1          -0.000000000   -0.000000000    0.000091099
 -------------------------------------------------------------------
 Cartesian Forces:  Max     0.000091099 RMS     0.000052596
 Leave Link  716 at Sat Aug 17 22:43:17 2024, MaxMem=   13107200 cpu:       0.0
 (Enter /programs/64bit/g09/g09-gfortran/bin/l103.exe)

 GradGradGradGradGradGradGradGradGradGradGradGradGradGradGradGradGradGrad
 Berny optimization.
 Using GEDIIS/GDIIS optimizer.
 Internal  Forces:  Max     0.000091099 RMS     0.000091099
 Search for a local minimum.
 Step number   2 out of a maximum of   20
 All quantities printed in internal units (Hartrees-Bohrs-Radians)
 RMS Force = .91099D-04 SwitMx=.10000D-02 MixMth= 2
 Mixed Optimization -- En-DIIS/RFO-DIIS
 Update second derivatives using D2CorX and points    1    2
 DE= -3.21D-04 DEPred=-3.27D-04 R= 9.82D-01
 SS=  1.41D+00  RLast= 4.08D-02 DXNew= 5.0454D-01 1.2240D-01
 Trust test= 9.82D-01 RLast= 4.08D-02 DXMaxT set to 3.00D-01
 The second derivative matrix:
                          R1
           R1           0.38981
 Use linear search instead of GDIIS.
     Eigenvalues ---    0.38981
 RFO step:  Lambda= 0.00000000D+00 EMin= 3.89814081D-01
 Quartic linear search produced a step of  0.00614.
 Iteration  1 RMS(Cart)=  0.00017709 RMS(Int)=  0.00000000
 Iteration  2 RMS(Cart)=  0.00000000 RMS(Int)=  0.00000000
 ClnCor:  largest displacement from symmetrization is 7.67D-21 for atom     2.
 Variable       Old X    -DE/DX   Delta X   Delta X   Delta X     New X
                                 (Linear)    (Quad)   (Total)
    R1        1.43920   0.00009   0.00025   0.00000   0.00025   1.43945
         Item               Value     Threshold  Converged?
 Maximum Force            0.000091     0.000450     YES
 RMS     Force            0.000091     0.000300     YES
 Maximum Displacement     0.000125     0.001800     YES
 RMS     Displacement     0.000177     0.001200     YES
 Predicted change in Energy=-1.059025D-08
 Optimization completed.
    -- Stationary point found.
                           ----------------------------
                           !   Optimized Parameters   !
                           ! (Angstroms and Degrees)  !
 --------------------------                            --------------------------
 ! Name  Definition              Value          Derivative Info.                !
 --------------------------------------------------------------------------------
 ! R1    R(1,2)                  0.7616         -DE/DX =    0.0001              !
 --------------------------------------------------------------------------------
 GradGradGradGradGradGradGradGradGradGradGradGradGradGradGradGradGradGrad

 Largest change from initial coordinates is atom    1       0.011 Angstoms.
 Leave Link  103 at Sat Aug 17 22:43:17 2024, MaxMem=   13107200 cpu:       0.0
 (Enter /programs/64bit/g09/g09-gfortran/bin/l202.exe)
                          Input orientation:                          
 ---------------------------------------------------------------------
 Center     Atomic      Atomic             Coordinates (Angstroms)
 Number     Number       Type             X           Y           Z
 ---------------------------------------------------------------------
      1          1           0        0.000000    0.000000   -0.010795
      2          1           0        0.000000    0.000000    0.750795
 ---------------------------------------------------------------------
 Stoichiometry    H2
 Framework group  D*H[C*(H.H)]
 Deg. of freedom     1
 Full point group                 D*H     NOp   8
 Largest Abelian subgroup         D2H     NOp   8
 Largest concise Abelian subgroup C2      NOp   2
                         Standard orientation:                         
 ---------------------------------------------------------------------
 Center     Atomic      Atomic             Coordinates (Angstroms)
 Number     Number       Type             X           Y           Z
 ---------------------------------------------------------------------
      1          1           0        0.000000    0.000000    0.380795
      2          1           0        0.000000    0.000000   -0.380795
 ---------------------------------------------------------------------
 Rotational constants (GHZ):      0.0000000   1729.0938941   1729.0938941
 Leave Link  202 at Sat Aug 17 22:43:17 2024, MaxMem=   13107200 cpu:       0.0
 (Enter /programs/64bit/g09/g09-gfortran/bin/l601.exe)
 Copying SCF densities to generalized density rwf, IOpCl= 0 IROHF=0.

 **********************************************************************

            Population analysis using the SCF density.

 **********************************************************************

 Orbital symmetries:
       Occupied  (SGG)
       Virtual   (SGU) (SGG) (SGU) (PIU) (PIU) (SGG) (PIG) (PIG)
                 (SGU)
 The electronic state is 1-SGG.
 Alpha  occ. eigenvalues --   -0.42574
 Alpha virt. eigenvalues --    0.07050   0.33266   0.69504   1.04758   1.04758
 Alpha virt. eigenvalues --    1.66219   1.76429   1.76429   3.14612
     Molecular Orbital Coefficients:
                           1         2         3         4         5
                       (SGG)--O  (SGU)--V  (SGG)--V  (SGU)--V  (PIU)--V
     Eigenvalues --    -0.42574   0.07050   0.33266   0.69504   1.04758
   1 1   H  1S          0.40595   0.22591  -0.70075  -0.83534   0.00000
   2        2S          0.17516   1.76068   0.72529   1.74811   0.00000
   3        3PX         0.00000   0.00000   0.00000   0.00000   0.00000
   4        3PY         0.00000   0.00000   0.00000   0.00000   0.58302
   5        3PZ        -0.01827   0.01107   0.02276  -0.34106   0.00000
   6 2   H  1S          0.40595  -0.22591  -0.70075   0.83534   0.00000
   7        2S          0.17516  -1.76068   0.72529  -1.74811   0.00000
   8        3PX         0.00000   0.00000   0.00000   0.00000   0.00000
   9        3PY         0.00000   0.00000   0.00000   0.00000   0.58302
  10        3PZ         0.01827   0.01107  -0.02276  -0.34106   0.00000
                           6         7         8         9        10
                       (PIU)--V  (SGG)--V  (PIG)--V  (PIG)--V  (SGU)--V
     Eigenvalues --     1.04758   1.66219   1.76429   1.76429   3.14612
   1 1   H  1S          0.00000   0.44528   0.00000   0.00000   2.45207
   2        2S          0.00000  -0.22801   0.00000   0.00000   0.12727
   3        3PX         0.58302   0.00000   0.00000   0.97220   0.00000
   4        3PY         0.00000   0.00000   0.97220   0.00000   0.00000
   5        3PZ         0.00000   0.71367   0.00000   0.00000  -1.97625
   6 2   H  1S          0.00000   0.44528   0.00000   0.00000  -2.45207
   7        2S          0.00000  -0.22801   0.00000   0.00000  -0.12727
   8        3PX         0.58302   0.00000   0.00000  -0.97220   0.00000
   9        3PY         0.00000   0.00000  -0.97220   0.00000   0.00000
  10        3PZ         0.00000  -0.71367   0.00000   0.00000  -1.97625
     Density Matrix:
                           1         2         3         4         5
   1 1   H  1S          0.32959
   2        2S          0.14221   0.06136
   3        3PX        -0.00000  -0.00000   0.00000
   4        3PY        -0.00000  -0.00000   0.00000   0.00000
   5        3PZ        -0.01484  -0.00640   0.00000   0.00000   0.00067
   6 2   H  1S          0.32959   0.14221  -0.00000  -0.00000  -0.01484
   7        2S          0.14221   0.06136  -0.00000  -0.00000  -0.00640
   8        3PX         0.00000   0.00000  -0.00000  -0.00000  -0.00000
   9        3PY         0.00000   0.00000  -0.00000  -0.00000  -0.00000
  10        3PZ         0.01484   0.00640  -0.00000  -0.00000  -0.00067
                           6         7         8         9        10
   6 2   H  1S          0.32959
   7        2S          0.14221   0.06136
   8        3PX         0.00000   0.00000   0.00000
   9        3PY         0.00000   0.00000   0.00000   0.00000
  10        3PZ         0.01484   0.00640   0.00000   0.00000   0.00067
    Full Mulliken population analysis:
                           1         2         3         4         5
   1 1   H  1S          0.32959
   2        2S          0.09740   0.06136
   3        3PX         0.00000   0.00000   0.00000
   4        3PY         0.00000   0.00000   0.00000   0.00000
   5        3PZ         0.00000   0.00000   0.00000   0.00000   0.00067
   6 2   H  1S          0.18239   0.07952   0.00000   0.00000   0.00789
   7        2S          0.07952   0.05408   0.00000   0.00000   0.00107
   8        3PX         0.00000   0.00000  -0.00000   0.00000   0.00000
   9        3PY         0.00000   0.00000   0.00000  -0.00000   0.00000
  10        3PZ         0.00789   0.00107   0.00000   0.00000   0.00016
                           6         7         8         9        10
   6 2   H  1S          0.32959
   7        2S          0.09740   0.06136
   8        3PX         0.00000   0.00000   0.00000
   9        3PY         0.00000   0.00000   0.00000   0.00000
  10        3PZ         0.00000   0.00000   0.00000   0.00000   0.00067
     Gross orbital populations:
                           1
   1 1   H  1S          0.69679
   2        2S          0.29342
   3        3PX         0.00000
   4        3PY         0.00000
   5        3PZ         0.00979
   6 2   H  1S          0.69679
   7        2S          0.29342
   8        3PX         0.00000
   9        3PY         0.00000
  10        3PZ         0.00979
          Condensed to atoms (all electrons):
              1          2
     1  H    0.586413   0.413587
     2  H    0.413587   0.586413
 Mulliken atomic charges:
              1
     1  H   -0.000000
     2  H   -0.000000
 Sum of Mulliken atomic charges =  -0.00000
 Mulliken charges with hydrogens summed into heavy atoms:
              1
 Sum of Mulliken charges with hydrogens summed into heavy atoms =  -0.00000
 Electronic spatial extent (au):  <R**2>=              5.1549
 Charge=             -0.0000 electrons
 Dipole moment (field-independent basis, Debye):
    X=             -0.0000    Y=             -0.0000    Z=              0.0000  Tot=              0.0000
 Quadrupole moment (field-independent basis, Debye-Ang):
   XX=             -2.0436   YY=             -2.0436   ZZ=             -1.4534
   XY=             -0.0000   XZ=             -0.0000   YZ=              0.0000
 Traceless Quadrupole moment (field-independent basis, Debye-Ang):
   XX=             -0.1967   YY=             -0.1967   ZZ=              0.3935
   XY=             -0.0000   XZ=             -0.0000   YZ=              0.0000
 Octapole moment (field-independent basis, Debye-Ang**2):
  XXX=             -0.0000  YYY=             -0.0000  ZZZ=              0.0000  XYY=             -0.0000
  XXY=              0.0000  XXZ=              0.0000  XZZ=             -0.0000  YZZ=              0.0000
  YYZ=              0.0000  XYZ=              0.0000
 Hexadecapole moment (field-independent basis, Debye-Ang**3):
 XXXX=             -1.9277 YYYY=             -1.9277 ZZZZ=             -2.8311 XXXY=             -0.0000
 XXXZ=              0.0000 YYYX=             -0.0000 YYYZ=              0.0000 ZZZX=              0.0000
 ZZZY=              0.0000 XXYY=             -0.6426 XXZZ=             -0.8110 YYZZ=             -0.8110
 XXYZ=              0.0000 YYXZ=              0.0000 ZZXY=             -0.0000
 N-N= 6.948313344889D-01 E-N=-3.559724557527D+00  KE= 1.084016985742D+00
 Symmetry AG   KE= 1.084016985742D+00
 Symmetry B1G  KE= 0.000000000000D+00
 Symmetry B2G  KE= 2.957097727180D-34
 Symmetry B3G  KE= 2.957097727180D-34
 Symmetry AU   KE= 0.000000000000D+00
 Symmetry B1U  KE= 7.155334415314D-32
 Symmetry B2U  KE= 6.293796848914D-35
 Symmetry B3U  KE= 6.293796848914D-35
 Orbital energies and kinetic energies (alpha):
                                 1                 2
   1         (SGG)--O         -0.425743          0.542008
   2         (SGU)--V          0.070499          0.399036
   3         (SGG)--V          0.332659          0.888081
   4         (SGU)--V          0.695035          1.615623
   5         (PIU)--V          1.047578          1.642240
   6         (PIU)--V          1.047578          1.642240
   7         (SGG)--V          1.662186          2.330902
   8         (PIG)--V          1.764288          2.304839
   9         (PIG)--V          1.764288          2.304839
  10         (SGU)--V          3.146116          4.431928
 Total kinetic energy from orbitals= 1.084016985742D+00
 No NMR shielding tensors so no spin-rotation constants.
 Leave Link  601 at Sat Aug 17 22:43:17 2024, MaxMem=   13107200 cpu:       0.1
 (Enter /programs/64bit/g09/g09-gfortran/bin/l9999.exe)
 B after Tr=     0.000000    0.000000    0.699199
         Rot=    0.000000   -0.000000    1.000000   -0.000000 Ang= 180.00 deg.
 Final structure in terms of initial Z-matrix:
 H
 H,1,d
      Variables:
 d=0.76159088
 1\1\GINC-MOLMOD\FOpt\RB3LYP\CC-pVDZ\H2\OSPITE\17-Aug-2024\0\\#p b3lyp/
 cc-pVDZ opt freq pop=full gfinput\\hydogen (molecule) with cc-pVDZ bas
 is set\\0,1\H,0.,0.,-0.0107954408\H,0.,0.,0.7507954408\\Version=EM64L-
 G09RevA.02\State=1-SGG\HF=-1.1736021\RMSD=6.124e-10\RMSF=5.260e-05\Dip
 ole=0.,0.,0.\Quadrupole=-0.1462718,-0.1462718,0.2925435,0.,0.,0.\PG=D*
 H [C*(H1.H1)]\\@


 GROWING OLD ISN'T SO BAD -- WHEN YOU CONSIDER THE ALTERNATIVE.

                     -- MAURICE CHEVALIER
 Leave Link 9999 at Sat Aug 17 22:43:18 2024, MaxMem=   13107200 cpu:       0.0
 Job cpu time:  0 days  0 hours  0 minutes  2.9 seconds.
 File lengths (MBytes):  RWF=      5 Int=      0 D2E=      0 Chk=      1 Scr=      1
 Normal termination of Gaussian 09 at Sat Aug 17 22:43:18 2024.
 (Enter /programs/64bit/g09/g09-gfortran/bin/l1.exe)
 Link1:  Proceeding to internal job step number  2.
 -------------------------------------------------------------------
 #P Geom=AllCheck Guess=TCheck SCRF=Check GenChk RB3LYP/CC-pVDZ Freq
 -------------------------------------------------------------------
 1/10=4,29=7,30=1,38=1,40=1/1,3;
 2/12=2,40=1/2;
 3/5=16,11=2,14=-4,16=1,24=10,25=1,30=1,70=2,71=2,74=-5,116=1/1,2,3;
 4/5=101/1;
 5/5=2,98=1/2;
 8/6=4,10=90,11=11/1;
 11/6=1,8=1,9=11,15=111,16=1/1,2,10;
 10/6=1/2;
 6/7=3,18=1,28=1/1;
 7/8=1,10=1,25=1/1,2,3,16;
 1/10=4,30=1/3;
 99//99;
 Leave Link    1 at Sat Aug 17 22:43:18 2024, MaxMem=   13107200 cpu:       0.1
 (Enter /programs/64bit/g09/g09-gfortran/bin/l101.exe)
 -----------------------------------------
 hydogen (molecule) with cc-pVDZ basis set
 -----------------------------------------
 Redundant internal coordinates taken from checkpoint file:
 /home/ospite/Desktop/MMfP/Project6/H2/g09/DFT/B3LYP/Gau-15380.chk
 Charge =  0 Multiplicity = 1
 H,0,0.,0.,-0.0107954408
 H,0,0.,0.,0.7507954408
 Recover connectivity data from disk.
                    Isotopes and Nuclear Properties:
 (Nuclear quadrupole moments (NQMom) in fm**2, nuclear magnetic moments (NMagM)
  in nuclear magnetons)

  Atom         1           2
 IAtWgt=           1           1
 AtmWgt=   1.0078250   1.0078250
 NucSpn=           1           1
 AtZEff=  -1.0000000  -1.0000000
 NQMom=    0.0000000   0.0000000
 NMagM=    2.7928460   2.7928460
 Leave Link  101 at Sat Aug 17 22:43:18 2024, MaxMem=   13107200 cpu:       0.1
 (Enter /programs/64bit/g09/g09-gfortran/bin/l103.exe)

 GradGradGradGradGradGradGradGradGradGradGradGradGradGradGradGradGradGrad
 Berny optimization.
 Initialization pass.
                           ----------------------------
                           !    Initial Parameters    !
                           ! (Angstroms and Degrees)  !
 --------------------------                            --------------------------
 ! Name  Definition              Value          Derivative Info.                !
 --------------------------------------------------------------------------------
 ! R1    R(1,2)                  0.7616         calculate D2E/DX2 analytically  !
 --------------------------------------------------------------------------------
 Trust Radius=3.00D-01 FncErr=1.00D-07 GrdErr=1.00D-07
 Number of steps in this run=   2 maximum allowed number of steps=   2.
 GradGradGradGradGradGradGradGradGradGradGradGradGradGradGradGradGradGrad

 Leave Link  103 at Sat Aug 17 22:43:18 2024, MaxMem=   13107200 cpu:       0.0
 (Enter /programs/64bit/g09/g09-gfortran/bin/l202.exe)
                          Input orientation:                          
 ---------------------------------------------------------------------
 Center     Atomic      Atomic             Coordinates (Angstroms)
 Number     Number       Type             X           Y           Z
 ---------------------------------------------------------------------
      1          1           0        0.000000    0.000000   -0.010795
      2          1           0        0.000000    0.000000    0.750795
 ---------------------------------------------------------------------
 Stoichiometry    H2
 Framework group  D*H[C*(H.H)]
 Deg. of freedom     1
 Full point group                 D*H     NOp   8
 Largest Abelian subgroup         D2H     NOp   8
 Largest concise Abelian subgroup C2      NOp   2
                         Standard orientation:                         
 ---------------------------------------------------------------------
 Center     Atomic      Atomic             Coordinates (Angstroms)
 Number     Number       Type             X           Y           Z
 ---------------------------------------------------------------------
      1          1           0        0.000000    0.000000    0.380795
      2          1           0        0.000000    0.000000   -0.380795
 ---------------------------------------------------------------------
 Rotational constants (GHZ):      0.0000000   1729.0938941   1729.0938941
 Leave Link  202 at Sat Aug 17 22:43:18 2024, MaxMem=   13107200 cpu:       0.0
 (Enter /programs/64bit/g09/g09-gfortran/bin/l301.exe)
 Standard basis: CC-pVDZ (5D, 7F)
 Ernie: Thresh=  0.10000D-02 Tol=  0.10000D-05 Strict=F.
 AO basis set in the form of general basis input (Overlap normalization):
      1 0
 S   3 1.00       0.000000000000
      0.1301000000D+02  0.3349872639D-01
      0.1962000000D+01  0.2348008012D+00
      0.4446000000D+00  0.8136829579D+00
 S   1 1.00       0.000000000000
      0.1220000000D+00  0.1000000000D+01
 P   1 1.00       0.000000000000
      0.7270000000D+00  0.1000000000D+01
 ****
      2 0
 S   3 1.00       0.000000000000
      0.1301000000D+02  0.3349872639D-01
      0.1962000000D+01  0.2348008012D+00
      0.4446000000D+00  0.8136829579D+00
 S   1 1.00       0.000000000000
      0.1220000000D+00  0.1000000000D+01
 P   1 1.00       0.000000000000
      0.7270000000D+00  0.1000000000D+01
 ****

 There are     3 symmetry adapted basis functions of AG  symmetry.
 There are     0 symmetry adapted basis functions of B1G symmetry.
 There are     1 symmetry adapted basis functions of B2G symmetry.
 There are     1 symmetry adapted basis functions of B3G symmetry.
 There are     0 symmetry adapted basis functions of AU  symmetry.
 There are     3 symmetry adapted basis functions of B1U symmetry.
 There are     1 symmetry adapted basis functions of B2U symmetry.
 There are     1 symmetry adapted basis functions of B3U symmetry.
 Integral buffers will be    131072 words long.
 Raffenetti 2 integral format.
 Two-electron integral symmetry is turned on.
    10 basis functions,    14 primitive gaussians,    10 cartesian basis functions
     1 alpha electrons        1 beta electrons
       nuclear repulsion energy         0.6948313345 Hartrees.
 IExCor=  402 DFT=T Ex+Corr=B3LYP ExCW=0 ScaHFX=  0.200000
 ScaDFX=  0.800000  0.720000  1.000000  0.810000 ScalE2=  1.000000  1.000000
 IRadAn=      0 IRanWt=     -1 IRanGd=            0 ICorTp=0
 NAtoms=    2 NActive=    2 NUniq=    1 SFac= 3.00D+00 NAtFMM=   80 NAOKFM=F Big=F
 Leave Link  301 at Sat Aug 17 22:43:18 2024, MaxMem=   13107200 cpu:       0.1
 (Enter /programs/64bit/g09/g09-gfortran/bin/l302.exe)
 NPDir=0 NMtPBC=     1 NCelOv=     1 NCel=       1 NClECP=     1 NCelD=      1
         NCelK=      1 NCelE2=     1 NClLst=     1 CellRange=     0.0.
 One-electron integrals computed using PRISM.
 One-electron integral symmetry used in STVInt
 NBasis=    10 RedAO= T  NBF=     3     0     1     1     0     3     1     1
 NBsUse=    10 1.00D-06 NBFU=     3     0     1     1     0     3     1     1
 Precomputing XC quadrature grid using
 IXCGrd= 2 IRadAn=           0 IRanWt=          -1 IRanGd=           0 AccXCQ= 1.00D-10.
 NRdTot=     122 NPtTot=       15460 NUsed=       16353 NTot=       16385
 NSgBfM=    10    10    10    10    10 NAtAll=     2     2.
 Leave Link  302 at Sat Aug 17 22:43:18 2024, MaxMem=   13107200 cpu:       0.2
 (Enter /programs/64bit/g09/g09-gfortran/bin/l303.exe)
 DipDrv:  MaxL=1.
 Leave Link  303 at Sat Aug 17 22:43:18 2024, MaxMem=   13107200 cpu:       0.0
 (Enter /programs/64bit/g09/g09-gfortran/bin/l401.exe)
 Initial guess read from the checkpoint file:  /home/ospite/Desktop/MMfP/Project6
 /H2/g09/DFT/B3LYP/Gau-15380.chk
 B after Tr=     0.000000    0.000000    0.000000
         Rot=    1.000000    0.000000    0.000000    0.000000 Ang=   0.00 deg.
 Guess basis will be translated and rotated to current coordinates.
 Initial guess orbital symmetries:
       Occupied  (SGG)
       Virtual   (SGU) (SGG) (SGU) (PIU) (PIU) (SGG) (PIG) (PIG)
                 (SGU)
 The electronic state of the initial guess is 1-SGG.
 Leave Link  401 at Sat Aug 17 22:43:19 2024, MaxMem=   13107200 cpu:       0.2
 (Enter /programs/64bit/g09/g09-gfortran/bin/l502.exe)
 Closed shell SCF:
 Requested convergence on RMS density matrix=1.00D-08 within 128 cycles.
 Requested convergence on MAX density matrix=1.00D-06.
 Requested convergence on             energy=1.00D-06.
 No special actions if energy rises.
 Using DIIS extrapolation, IDIIS=  1040.
 Integral symmetry usage will be decided dynamically.
        16322 words used for storage of precomputed grid.
 Keep R1 ints in memory in canonical form, NReq=895019.
 IEnd=       36115 IEndB=       36115 NGot=    13107200 MDV=    13086620
 LenX=    13086620 LenY=    13085738
 Symmetry not used in FoFDir.
 MinBra= 0 MaxBra= 1 Meth= 1.
 IRaf=       0 NMat=   1 IRICut=       1 DoRegI=T DoRafI=F ISym2E= 0 JSym2E=0.

 Cycle   1  Pass 1  IDiag  1:
 E= -1.17360207892964    
 DIIS: error= 2.31D-16 at cycle   1 NSaved=   1.
 NSaved= 1 IEnMin= 1 EnMin= -1.17360207892964     IErMin= 1 ErrMin= 2.31D-16
 ErrMax= 2.31D-16 EMaxC= 1.00D-01 BMatC= 3.04D-31 BMatP= 3.04D-31
 IDIUse=1 WtCom= 1.00D+00 WtEn= 0.00D+00
 Coeff-Com:  0.100D+01
 Coeff:      0.100D+01
 Gap=     0.496 Goal=   None    Shift=    0.000
 RMSDP=6.53D-17 MaxDP=2.78D-16              OVMax= 4.82D-16

 SCF Done:  E(RB3LYP) =  -1.17360207893     A.U. after    1 cycles
             Convg  =    0.6535D-16             -V/T =  2.0826
 KE= 1.084016985742D+00 PE=-3.559724557527D+00 EE= 6.072741583669D-01
 Leave Link  502 at Sat Aug 17 22:43:19 2024, MaxMem=   13107200 cpu:       0.1
 (Enter /programs/64bit/g09/g09-gfortran/bin/l801.exe)
 Range of M.O.s used for correlation:     1    10
 NBasis=    10 NAE=     1 NBE=     1 NFC=     0 NFV=     0
 NROrb=     10 NOA=     1 NOB=     1 NVA=     9 NVB=     9
 Leave Link  801 at Sat Aug 17 22:43:19 2024, MaxMem=   13107200 cpu:       0.0
 (Enter /programs/64bit/g09/g09-gfortran/bin/l1101.exe)
 Using compressed storage, NAtomX=     2.
 Will process   3 centers per pass.
 Leave Link 1101 at Sat Aug 17 22:43:19 2024, MaxMem=   13107200 cpu:       0.1
 (Enter /programs/64bit/g09/g09-gfortran/bin/l1102.exe)
 Symmetrizing basis deriv contribution to polar:
 IMax=3 JMax=2 DiffMx= 0.00D+00
 Leave Link 1102 at Sat Aug 17 22:43:19 2024, MaxMem=   13107200 cpu:       0.0
 (Enter /programs/64bit/g09/g09-gfortran/bin/l1110.exe)
 Forming Gx(P) for the SCF density, NAtomX=     2.
 Integral derivatives from FoFDir/FoFCou, PRISM(SPDF).
 Do as many integral derivatives as possible in FoFDir.
 G2DrvN: MDV=      13107080.
 G2DrvN: will do     3 centers at a time, making    1 passes doing MaxLOS=1.
 Calling FoFCou, ICntrl=  3107 FMM=F I1Cent=   0 AccDes= 0.00D+00.
 FoFCou: FMM=F IPFlag=           0 FMFlag=      100000 FMFlg1=           0
         NFxFlg=           0 DoJE=F BraDBF=F KetDBF=F FulRan=T
         Omega=  0.000000  0.000000  1.000000  0.000000  0.000000 ICntrl=    3107 IOpCl=  0
         NMat0=    1 NMatS0=    1 NMatT0=    0 NMatD0=    1 NMtDS0=    0 NMtDT0=    0
         I1Cent=           0 NGrid=           0.
 Petite list used in FoFCou.
 FoFDir/FoFCou used for L=0 through L=1.
 End of G2Drv Frequency-dependent properties file   721 does not exist.
 End of G2Drv Frequency-dependent properties file   722 does not exist.
 Leave Link 1110 at Sat Aug 17 22:43:19 2024, MaxMem=   13107200 cpu:       0.1
 (Enter /programs/64bit/g09/g09-gfortran/bin/l1002.exe)
 Minotr:  Closed shell wavefunction.
          IDoAtm=11
          Direct CPHF calculation.
          Differentiating once with respect to electric field.
                with respect to dipole field.
          Differentiating once with respect to nuclear coordinates.
          Using symmetry in CPHF.
          Requested convergence is 1.0D-08 RMS, and 1.0D-07 maximum.
          Secondary convergence is 1.0D-12 RMS, and 1.0D-12 maximum.
          NewPWx=T KeepS1=F KeepF1=F KeepIn=T MapXYZ=F SortEE=F KeepMc=T.
          MDV=      13107176 using IRadAn=       2.
 Generate precomputed XC quadrature information.
          Keep R1 ints in memory in canonical form, NReq=802458.
 Symmetry not used in FoFDir.
 MinBra= 0 MaxBra= 1 Meth= 1.
 IRaf=       0 NMat=   1 IRICut=       1 DoRegI=T DoRafI=F ISym2E= 0 JSym2E=0.
          Solving linear equations simultaneously, MaxMat=       0.
          There are     6 degrees of freedom in the 1st order CPHF.  IDoFFX=4.
      6 vectors produced by pass  0 Test12= 1.50D-16 1.67D-08 XBig12= 4.02D+00 1.99D+00.
 AX will form     6 AO Fock derivatives at one time.
      2 vectors produced by pass  1 Test12= 1.50D-16 1.67D-08 XBig12= 7.22D-02 2.64D-01.
      1 vectors produced by pass  2 Test12= 1.50D-16 1.67D-08 XBig12= 2.27D-06 1.49D-03.
 Inverted reduced A of dimension     9 with in-core refinement.
 FullF1:  Do perturbations    1 to     6.
 Isotropic polarizability for W=    0.000000        3.04 Bohr**3.
 End of Minotr Frequency-dependent properties file   721 does not exist.
 End of Minotr Frequency-dependent properties file   722 does not exist.
 Leave Link 1002 at Sat Aug 17 22:43:19 2024, MaxMem=   13107200 cpu:       0.2
 (Enter /programs/64bit/g09/g09-gfortran/bin/l601.exe)
 Copying SCF densities to generalized density rwf, IOpCl= 0 IROHF=0.

 **********************************************************************

            Population analysis using the SCF density.

 **********************************************************************

 Orbital symmetries:
       Occupied  (SGG)
       Virtual   (SGU) (SGG) (SGU) (PIU) (PIU) (SGG) (PIG) (PIG)
                 (SGU)
 The electronic state is 1-SGG.
 Alpha  occ. eigenvalues --   -0.42574
 Alpha virt. eigenvalues --    0.07050   0.33266   0.69504   1.04758   1.04758
 Alpha virt. eigenvalues --    1.66219   1.76429   1.76429   3.14612
     Molecular Orbital Coefficients:
                           1         2         3         4         5
                       (SGG)--O  (SGU)--V  (SGG)--V  (SGU)--V  (PIU)--V
     Eigenvalues --    -0.42574   0.07050   0.33266   0.69504   1.04758
   1 1   H  1S          0.40595   0.22591  -0.70075  -0.83534   0.00000
   2        2S          0.17516   1.76068   0.72529   1.74811   0.00000
   3        3PX         0.00000   0.00000   0.00000   0.00000   0.00000
   4        3PY         0.00000   0.00000   0.00000   0.00000   0.58302
   5        3PZ        -0.01827   0.01107   0.02276  -0.34106   0.00000
   6 2   H  1S          0.40595  -0.22591  -0.70075   0.83534   0.00000
   7        2S          0.17516  -1.76068   0.72529  -1.74811   0.00000
   8        3PX         0.00000   0.00000   0.00000   0.00000   0.00000
   9        3PY         0.00000   0.00000   0.00000   0.00000   0.58302
  10        3PZ         0.01827   0.01107  -0.02276  -0.34106   0.00000
                           6         7         8         9        10
                       (PIU)--V  (SGG)--V  (PIG)--V  (PIG)--V  (SGU)--V
     Eigenvalues --     1.04758   1.66219   1.76429   1.76429   3.14612
   1 1   H  1S          0.00000   0.44528   0.00000   0.00000   2.45207
   2        2S          0.00000  -0.22801   0.00000   0.00000   0.12727
   3        3PX         0.58302   0.00000   0.97220   0.00000   0.00000
   4        3PY         0.00000   0.00000   0.00000   0.97220   0.00000
   5        3PZ         0.00000   0.71367   0.00000   0.00000  -1.97625
   6 2   H  1S          0.00000   0.44528   0.00000   0.00000  -2.45207
   7        2S          0.00000  -0.22801   0.00000   0.00000  -0.12727
   8        3PX         0.58302   0.00000  -0.97220   0.00000   0.00000
   9        3PY         0.00000   0.00000   0.00000  -0.97220   0.00000
  10        3PZ         0.00000  -0.71367   0.00000   0.00000  -1.97625
     Density Matrix:
                           1         2         3         4         5
   1 1   H  1S          0.32959
   2        2S          0.14221   0.06136
   3        3PX        -0.00000  -0.00000   0.00000
   4        3PY        -0.00000  -0.00000   0.00000   0.00000
   5        3PZ        -0.01484  -0.00640   0.00000   0.00000   0.00067
   6 2   H  1S          0.32959   0.14221  -0.00000  -0.00000  -0.01484
   7        2S          0.14221   0.06136  -0.00000  -0.00000  -0.00640
   8        3PX         0.00000   0.00000  -0.00000  -0.00000  -0.00000
   9        3PY         0.00000   0.00000  -0.00000  -0.00000  -0.00000
  10        3PZ         0.01484   0.00640  -0.00000  -0.00000  -0.00067
                           6         7         8         9        10
   6 2   H  1S          0.32959
   7        2S          0.14221   0.06136
   8        3PX         0.00000   0.00000   0.00000
   9        3PY         0.00000   0.00000   0.00000   0.00000
  10        3PZ         0.01484   0.00640   0.00000   0.00000   0.00067
    Full Mulliken population analysis:
                           1         2         3         4         5
   1 1   H  1S          0.32959
   2        2S          0.09740   0.06136
   3        3PX         0.00000   0.00000   0.00000
   4        3PY         0.00000   0.00000   0.00000   0.00000
   5        3PZ         0.00000   0.00000   0.00000   0.00000   0.00067
   6 2   H  1S          0.18239   0.07952   0.00000   0.00000   0.00789
   7        2S          0.07952   0.05408   0.00000   0.00000   0.00107
   8        3PX         0.00000   0.00000  -0.00000   0.00000   0.00000
   9        3PY         0.00000   0.00000   0.00000  -0.00000   0.00000
  10        3PZ         0.00789   0.00107   0.00000   0.00000   0.00016
                           6         7         8         9        10
   6 2   H  1S          0.32959
   7        2S          0.09740   0.06136
   8        3PX         0.00000   0.00000   0.00000
   9        3PY         0.00000   0.00000   0.00000   0.00000
  10        3PZ         0.00000   0.00000   0.00000   0.00000   0.00067
     Gross orbital populations:
                           1
   1 1   H  1S          0.69679
   2        2S          0.29342
   3        3PX         0.00000
   4        3PY         0.00000
   5        3PZ         0.00979
   6 2   H  1S          0.69679
   7        2S          0.29342
   8        3PX         0.00000
   9        3PY         0.00000
  10        3PZ         0.00979
          Condensed to atoms (all electrons):
              1          2
     1  H    0.586413   0.413587
     2  H    0.413587   0.586413
 Mulliken atomic charges:
              1
     1  H   -0.000000
     2  H   -0.000000
 Sum of Mulliken atomic charges =  -0.00000
 Mulliken charges with hydrogens summed into heavy atoms:
              1
 Sum of Mulliken charges with hydrogens summed into heavy atoms =  -0.00000
 APT atomic charges:
              1
     1  H    0.000000
     2  H   -0.000000
 Sum of APT charges=   0.00000
 APT Atomic charges with hydrogens summed into heavy atoms:
              1
     1  H    0.000000
     2  H   -0.000000
 Sum of APT charges=   0.00000
 Electronic spatial extent (au):  <R**2>=              5.1549
 Charge=             -0.0000 electrons
 Dipole moment (field-independent basis, Debye):
    X=             -0.0000    Y=             -0.0000    Z=              0.0000  Tot=              0.0000
 Quadrupole moment (field-independent basis, Debye-Ang):
   XX=             -2.0436   YY=             -2.0436   ZZ=             -1.4534
   XY=             -0.0000   XZ=             -0.0000   YZ=              0.0000
 Traceless Quadrupole moment (field-independent basis, Debye-Ang):
   XX=             -0.1967   YY=             -0.1967   ZZ=              0.3935
   XY=             -0.0000   XZ=             -0.0000   YZ=              0.0000
 Octapole moment (field-independent basis, Debye-Ang**2):
  XXX=             -0.0000  YYY=              0.0000  ZZZ=              0.0000  XYY=             -0.0000
  XXY=              0.0000  XXZ=              0.0000  XZZ=             -0.0000  YZZ=              0.0000
  YYZ=              0.0000  XYZ=              0.0000
 Hexadecapole moment (field-independent basis, Debye-Ang**3):
 XXXX=             -1.9277 YYYY=             -1.9277 ZZZZ=             -2.8311 XXXY=             -0.0000
 XXXZ=              0.0000 YYYX=             -0.0000 YYYZ=              0.0000 ZZZX=              0.0000
 ZZZY=              0.0000 XXYY=             -0.6426 XXZZ=             -0.8110 YYZZ=             -0.8110
 XXYZ=              0.0000 YYXZ=              0.0000 ZZXY=             -0.0000
 N-N= 6.948313344889D-01 E-N=-3.559724557527D+00  KE= 1.084016985742D+00
 Symmetry AG   KE= 1.084016985742D+00
 Symmetry B1G  KE= 0.000000000000D+00
 Symmetry B2G  KE= 2.957097727180D-34
 Symmetry B3G  KE= 2.957097727180D-34
 Symmetry AU   KE= 0.000000000000D+00
 Symmetry B1U  KE= 6.247940826782D-32
 Symmetry B2U  KE= 6.293796848914D-35
 Symmetry B3U  KE= 6.293796848914D-35
 Orbital energies and kinetic energies (alpha):
                                 1                 2
   1         (SGG)--O         -0.425743          0.542008
   2         (SGU)--V          0.070499          0.399036
   3         (SGG)--V          0.332659          0.888081
   4         (SGU)--V          0.695035          1.615623
   5         (PIU)--V          1.047578          1.642240
   6         (PIU)--V          1.047578          1.642240
   7         (SGG)--V          1.662186          2.330902
   8         (PIG)--V          1.764288          2.304839
   9         (PIG)--V          1.764288          2.304839
  10         (SGU)--V          3.146116          4.431928
 Total kinetic energy from orbitals= 1.084016985742D+00
  Exact polarizability:   1.191   0.000   1.191  -0.000  -0.000   6.726
 Approx polarizability:   1.270  -0.000   1.270  -0.000  -0.000   8.141
 No NMR shielding tensors so no spin-rotation constants.
 Leave Link  601 at Sat Aug 17 22:43:19 2024, MaxMem=   13107200 cpu:       0.1
 (Enter /programs/64bit/g09/g09-gfortran/bin/l701.exe)
 Compute integral second derivatives.
 ... and contract with generalized density number  0.
 Leave Link  701 at Sat Aug 17 22:43:20 2024, MaxMem=   13107200 cpu:       0.1
 (Enter /programs/64bit/g09/g09-gfortran/bin/l702.exe)
 L702 exits ... SP integral derivatives will be done elsewhere.
 Leave Link  702 at Sat Aug 17 22:43:20 2024, MaxMem=   13107200 cpu:       0.0
 (Enter /programs/64bit/g09/g09-gfortran/bin/l703.exe)
 Compute integral second derivatives, UseDBF=F ICtDFT=           0.
 Integral derivatives from FoFDir, PRISM(SPDF).
 Calling FoFJK, ICntrl=    100127 FMM=F ISym2X=1 I1Cent= 0 IOpClX= 0 NMat=1 NMatS=1 NMatT=0.
 FoFCou: FMM=F IPFlag=           0 FMFlag=      100000 FMFlg1=         800
         NFxFlg=           0 DoJE=F BraDBF=F KetDBF=F FulRan=T
         Omega=  0.000000  0.000000  1.000000  0.000000  0.000000 ICntrl=  100127 IOpCl=  0
         NMat0=    1 NMatS0=    1 NMatT0=    0 NMatD0=    1 NMtDS0=    0 NMtDT0=    0
         I1Cent=           0 NGrid=           0.
 Petite list used in FoFCou.
 Leave Link  703 at Sat Aug 17 22:43:20 2024, MaxMem=   13107200 cpu:       0.2
 (Enter /programs/64bit/g09/g09-gfortran/bin/l716.exe)
 Dipole        =-1.10933565D-31 0.00000000D+00 9.69276742D-17
 Polarizability= 1.19056429D+00 1.65238680D-30 1.19056429D+00
                -4.37380104D-12-2.91471296D-13 6.72570619D+00
 Full mass-weighted force constant matrix:
 Low frequencies ---  -57.1889  -57.1889    0.0000    0.0000    0.0001 4370.1746
 Diagonal vibrational polarizability:
        0.0000000       0.0000000       0.0000000
 Harmonic frequencies (cm**-1), IR intensities (KM/Mole), Raman scattering
 activities (A**4/AMU), depolarization ratios for plane and unpolarized
 incident light, reduced masses (AMU), force constants (mDyne/A),
 and normal coordinates:
                     1
                    SGG
 Frequencies --  4370.1746
 Red. masses --     1.0078
 Frc consts  --    11.3405
 IR Inten    --     0.0000
  Atom  AN      X      Y      Z
     1   1    -0.00   0.00   0.71
     2   1     0.00   0.00  -0.71

 -------------------
 - Thermochemistry -
 -------------------
 Temperature   298.150 Kelvin.  Pressure   1.00000 Atm.
 Atom     1 has atomic number  1 and mass   1.00783
 Atom     2 has atomic number  1 and mass   1.00783
 Molecular mass:     2.01565 amu.
 Principal axes and moments of inertia in atomic units:
                           1         2         3
     Eigenvalues --     0.00000   1.04375   1.04375
           X           -0.00000   1.00000  -0.00000
           Y            0.00000   0.00000   1.00000
           Z            1.00000   0.00000  -0.00000
 This molecule is a prolate symmetric top.
 Rotational symmetry number  2.
 Rotational temperature (Kelvin)     82.98332
 Rotational constant (GHZ):        1729.093894
 Zero-point vibrational energy      26139.4 (Joules/Mol)
                                    6.24748 (Kcal/Mol)
 Vibrational temperatures:   6287.70
          (Kelvin)
 
 Zero-point correction=                           0.009956 (Hartree/Particle)
 Thermal correction to Energy=                    0.012316
 Thermal correction to Enthalpy=                  0.013261
 Thermal correction to Gibbs Free Energy=        -0.001579
 Sum of electronic and zero-point Energies=             -1.163646
 Sum of electronic and thermal Energies=                -1.161286
 Sum of electronic and thermal Enthalpies=              -1.160341
 Sum of electronic and thermal Free Energies=           -1.175181
 
                     E (Thermal)             CV                S
                      KCal/Mol        Cal/Mol-Kelvin    Cal/Mol-Kelvin
 Total                    7.729              4.968             31.232
 Electronic               0.000              0.000              0.000
 Translational            0.889              2.981             28.080
 Rotational               0.592              1.987              3.151
 Vibrational              6.247              0.000              0.000
                       Q            Log10(Q)             Ln(Q)
 Total Bot       0.532187D+01          0.726064          1.671824
 Total V=0       0.202065D+06          5.305492         12.216347
 Vib (Bot)       0.263374D-04         -4.579428        -10.544522
 Vib (V=0)       0.100000D+01          0.000000          0.000000
 Electronic      0.100000D+01          0.000000          0.000000
 Translational   0.112481D+06          5.051078         11.630537
 Rotational      0.179645D+01          0.254414          0.585810
 ***** Axes restored to original set *****
 -------------------------------------------------------------------
 Center     Atomic                   Forces (Hartrees/Bohr)
 Number     Number              X              Y              Z
 -------------------------------------------------------------------
      1        1           0.000000000   -0.000000000   -0.000091099
      2        1          -0.000000000    0.000000000    0.000091099
 -------------------------------------------------------------------
 Cartesian Forces:  Max     0.000091099 RMS     0.000052596
 Force constants in Cartesian coordinates: 
                1             2             3             4             5 
      1 -0.623691D-04
      2  0.000000D+00 -0.623691D-04
      3  0.000000D+00  0.000000D+00  0.364204D+00
      4  0.623691D-04  0.000000D+00  0.000000D+00 -0.623691D-04
      5  0.000000D+00  0.623691D-04  0.000000D+00  0.000000D+00 -0.623691D-04
      6  0.000000D+00  0.000000D+00 -0.364204D+00  0.000000D+00  0.000000D+00
                6 
      6  0.364204D+00
 Force constants in internal coordinates: 
                1 
      1  0.364204D+00
 Leave Link  716 at Sat Aug 17 22:43:20 2024, MaxMem=   13107200 cpu:       0.0
 (Enter /programs/64bit/g09/g09-gfortran/bin/l103.exe)

 GradGradGradGradGradGradGradGradGradGradGradGradGradGradGradGradGradGrad
 Berny optimization.
 Internal  Forces:  Max     0.000091099 RMS     0.000091099
 Search for a local minimum.
 Step number   1 out of a maximum of    2
 All quantities printed in internal units (Hartrees-Bohrs-Radians)
 Second derivative matrix not updated -- analytic derivatives used.
 The second derivative matrix:
                          R1
           R1           0.36420
     Eigenvalues ---    0.36420
 Angle between quadratic step and forces=   0.00 degrees.
 Linear search not attempted -- first point.
 Iteration  1 RMS(Cart)=  0.00017687 RMS(Int)=  0.00000000
 Iteration  2 RMS(Cart)=  0.00000000 RMS(Int)=  0.00000000
 ClnCor:  largest displacement from symmetrization is 7.66D-21 for atom     2.
 Variable       Old X    -DE/DX   Delta X   Delta X   Delta X     New X
                                 (Linear)    (Quad)   (Total)
    R1        1.43920   0.00009   0.00000   0.00025   0.00025   1.43945
         Item               Value     Threshold  Converged?
 Maximum Force            0.000091     0.000450     YES
 RMS     Force            0.000091     0.000300     YES
 Maximum Displacement     0.000125     0.001800     YES
 RMS     Displacement     0.000177     0.001200     YES
 Predicted change in Energy=-1.139339D-08
 Optimization completed.
    -- Stationary point found.
                           ----------------------------
                           !   Optimized Parameters   !
                           ! (Angstroms and Degrees)  !
 --------------------------                            --------------------------
 ! Name  Definition              Value          Derivative Info.                !
 --------------------------------------------------------------------------------
 ! R1    R(1,2)                  0.7616         -DE/DX =    0.0001              !
 --------------------------------------------------------------------------------
 GradGradGradGradGradGradGradGradGradGradGradGradGradGradGradGradGradGrad

 Leave Link  103 at Sat Aug 17 22:43:20 2024, MaxMem=   13107200 cpu:       0.0
 (Enter /programs/64bit/g09/g09-gfortran/bin/l9999.exe)
 1\1\GINC-MOLMOD\Freq\RB3LYP\CC-pVDZ\H2\OSPITE\17-Aug-2024\0\\#P Geom=A
 llCheck Guess=TCheck SCRF=Check GenChk RB3LYP/CC-pVDZ Freq\\hydogen (m
 olecule) with cc-pVDZ basis set\\0,1\H,0.,0.,-0.0107954408\H,0.,0.,0.7
 507954408\\Version=EM64L-G09RevA.02\State=1-SGG\HF=-1.1736021\RMSD=6.5
 35e-17\RMSF=5.260e-05\ZeroPoint=0.009956\Thermal=0.0123165\Dipole=0.,0
 .,0.\DipoleDeriv=0.,0.,0.,0.,0.,0.,0.,0.,0.,0.,0.,0.,0.,0.,0.,0.,0.,0.
 \Polar=1.1905643,0.,1.1905643,0.,0.,6.7257062\PG=D*H [C*(H1.H1)]\NImag
 =0\\-0.00006237,0.,-0.00006237,0.,0.,0.36420355,0.00006237,0.,0.,-0.00
 006237,0.,0.00006237,0.,0.,-0.00006237,0.,0.,-0.36420355,0.,0.,0.36420
 355\\0.,0.,0.00009110,0.,0.,-0.00009110\\\@


 WOE UNTO THEM THAT CALL EVIL GOOD, AND GOOD EVIL      
 Job cpu time:  0 days  0 hours  0 minutes  2.1 seconds.
 File lengths (MBytes):  RWF=      5 Int=      0 D2E=      0 Chk=      1 Scr=      1
 Normal termination of Gaussian 09 at Sat Aug 17 22:43:20 2024.
