 Entering Gaussian System, Link 0=/programs/64bit/g09/g09-gfortran/bin/g09
 Input=h2_cc-pVTZ.com
 Output=h2_cc-pVTZ.log
 Initial command:
 /programs/64bit/g09/g09-gfortran/bin/l1.exe /home/ospite/Desktop/MMfP/Project6/H2/g09/DFT/B3LYP/Gau-15365.inp -scrdir=/home/ospite/Desktop/MMfP/Project6/H2/g09/DFT/B3LYP/
 Entering Link 1 = /programs/64bit/g09/g09-gfortran/bin/l1.exe PID=     15367.
  
 Copyright (c) 1988,1990,1992,1993,1995,1998,2003,2009, Gaussian, Inc.
                  All Rights Reserved.
  
 This is part of the Gaussian(R) 09 program.  It is based on
 the Gaussian(R) 03 system (copyright 2003, Gaussian, Inc.),
 the Gaussian(R) 98 system (copyright 1998, Gaussian, Inc.),
 the Gaussian(R) 94 system (copyright 1995, Gaussian, Inc.),
 the Gaussian 92(TM) system (copyright 1992, Gaussian, Inc.),
 the Gaussian 90(TM) system (copyright 1990, Gaussian, Inc.),
 the Gaussian 88(TM) system (copyright 1988, Gaussian, Inc.),
 the Gaussian 86(TM) system (copyright 1986, Carnegie Mellon
 University), and the Gaussian 82(TM) system (copyright 1983,
 Carnegie Mellon University). Gaussian is a federally registered
 trademark of Gaussian, Inc.
  
 This software contains proprietary and confidential information,
 including trade secrets, belonging to Gaussian, Inc.
  
 This software is provided under written license and may be
 used, copied, transmitted, or stored only in accord with that
 written license.
  
 The following legend is applicable only to US Government
 contracts under FAR:
  
                    RESTRICTED RIGHTS LEGEND
  
 Use, reproduction and disclosure by the US Government is
 subject to restrictions as set forth in subparagraphs (a)
 and (c) of the Commercial Computer Software - Restricted
 Rights clause in FAR 52.227-19.
  
 Gaussian, Inc.
 340 Quinnipiac St., Bldg. 40, Wallingford CT 06492
  
  
 ---------------------------------------------------------------
 Warning -- This program may not be used in any manner that
 competes with the business of Gaussian, Inc. or will provide
 assistance to any competitor of Gaussian, Inc.  The licensee
 of this program is prohibited from giving any competitor of
 Gaussian, Inc. access to this program.  By using this program,
 the user acknowledges that Gaussian, Inc. is engaged in the
 business of creating and licensing software in the field of
 computational chemistry and represents and warrants to the
 licensee that it is not a competitor of Gaussian, Inc. and that
 it will not use this program in any manner prohibited above.
 ---------------------------------------------------------------
  

 Cite this work as:
 Gaussian 09, Revision A.02,
 M. J. Frisch, G. W. Trucks, H. B. Schlegel, G. E. Scuseria, 
 M. A. Robb, J. R. Cheeseman, G. Scalmani, V. Barone, B. Mennucci, 
 G. A. Petersson, H. Nakatsuji, M. Caricato, X. Li, H. P. Hratchian, 
 A. F. Izmaylov, J. Bloino, G. Zheng, J. L. Sonnenberg, M. Hada, 
 M. Ehara, K. Toyota, R. Fukuda, J. Hasegawa, M. Ishida, T. Nakajima, 
 Y. Honda, O. Kitao, H. Nakai, T. Vreven, J. A. Montgomery, Jr., 
 J. E. Peralta, F. Ogliaro, M. Bearpark, J. J. Heyd, E. Brothers, 
 K. N. Kudin, V. N. Staroverov, R. Kobayashi, J. Normand, 
 K. Raghavachari, A. Rendell, J. C. Burant, S. S. Iyengar, J. Tomasi, 
 M. Cossi, N. Rega, J. M. Millam, M. Klene, J. E. Knox, J. B. Cross, 
 V. Bakken, C. Adamo, J. Jaramillo, R. Gomperts, R. E. Stratmann, 
 O. Yazyev, A. J. Austin, R. Cammi, C. Pomelli, J. W. Ochterski, 
 R. L. Martin, K. Morokuma, V. G. Zakrzewski, G. A. Voth, 
 P. Salvador, J. J. Dannenberg, S. Dapprich, A. D. Daniels, 
 O. Farkas, J. B. Foresman, J. V. Ortiz, J. Cioslowski, 
 and D. J. Fox, Gaussian, Inc., Wallingford CT, 2009.
 
 ******************************************
 Gaussian 09:  EM64L-G09RevA.02 11-Jun-2009
                17-Aug-2024 
 ******************************************
 %mem=100MB
 ------------------------------------------
 #p b3lyp/cc-pVTZ opt freq pop=full gfinput
 ------------------------------------------
 1/14=-1,18=20,19=15,26=3,38=1/1,3;
 2/9=110,12=2,17=6,18=5,40=1/2;
 3/5=16,6=1,11=2,16=1,24=10,25=1,30=1,71=1,74=-5/1,2,3;
 4//1;
 5/5=2,38=5/2;
 6/7=3,28=1/1;
 7//1,2,3,16;
 1/14=-1,18=20,19=15/3(2);
 2/9=110/2;
 99//99;
 2/9=110/2;
 3/5=16,6=1,11=2,16=1,25=1,30=1,71=1,74=-5/1,2,3;
 4/5=5,16=3/1;
 5/5=2,38=5/2;
 7//1,2,3,16;
 1/14=-1,18=20,19=15/3(-5);
 2/9=110/2;
 6/7=3,19=2,28=1/1;
 99/9=1/99;
 Leave Link    1 at Sat Aug 17 22:42:59 2024, MaxMem=   13107200 cpu:       0.1
 (Enter /programs/64bit/g09/g09-gfortran/bin/l101.exe)
 -----------------------------------------
 hydogen (molecule) with cc-pVTZ basis set
 -----------------------------------------
 Symbolic Z-matrix:
 Charge =  0 Multiplicity = 1
 H1
 H2                   1    d
       Variables:
  d                     0.74                     
 
 NAtoms=      2 NQM=      2 NQMF=      0 NMic=      0 NMicF=      0 NTot=      2.
                    Isotopes and Nuclear Properties:
 (Nuclear quadrupole moments (NQMom) in fm**2, nuclear magnetic moments (NMagM)
  in nuclear magnetons)

  Atom         1           2
 IAtWgt=           1           1
 AtmWgt=   1.0078250   1.0078250
 NucSpn=           1           1
 AtZEff=   0.0000000   0.0000000
 NQMom=    0.0000000   0.0000000
 NMagM=    2.7928460   2.7928460
 Leave Link  101 at Sat Aug 17 22:42:59 2024, MaxMem=   13107200 cpu:       0.1
 (Enter /programs/64bit/g09/g09-gfortran/bin/l103.exe)

 GradGradGradGradGradGradGradGradGradGradGradGradGradGradGradGradGradGrad
 Berny optimization.
 Initialization pass.
                           ----------------------------
                           !    Initial Parameters    !
                           ! (Angstroms and Degrees)  !
 --------------------------                            --------------------------
 ! Name  Definition              Value          Derivative Info.                !
 --------------------------------------------------------------------------------
 ! R1    R(1,2)                  0.74           estimate D2E/DX2                !
 --------------------------------------------------------------------------------
 Trust Radius=3.00D-01 FncErr=1.00D-07 GrdErr=1.00D-06
 Number of steps in this run=  20 maximum allowed number of steps= 100.
 GradGradGradGradGradGradGradGradGradGradGradGradGradGradGradGradGradGrad

 Leave Link  103 at Sat Aug 17 22:42:59 2024, MaxMem=   13107200 cpu:       0.0
 (Enter /programs/64bit/g09/g09-gfortran/bin/l202.exe)
                          Input orientation:                          
 ---------------------------------------------------------------------
 Center     Atomic      Atomic             Coordinates (Angstroms)
 Number     Number       Type             X           Y           Z
 ---------------------------------------------------------------------
      1          1           0        0.000000    0.000000    0.000000
      2          1           0        0.000000    0.000000    0.740000
 ---------------------------------------------------------------------
 Stoichiometry    H2
 Framework group  D*H[C*(H.H)]
 Deg. of freedom     1
 Full point group                 D*H     NOp   8
 Largest Abelian subgroup         D2H     NOp   8
 Largest concise Abelian subgroup C2      NOp   2
                         Standard orientation:                         
 ---------------------------------------------------------------------
 Center     Atomic      Atomic             Coordinates (Angstroms)
 Number     Number       Type             X           Y           Z
 ---------------------------------------------------------------------
      1          1           0        0.000000    0.000000    0.370000
      2          1           0        0.000000    0.000000   -0.370000
 ---------------------------------------------------------------------
 Rotational constants (GHZ):      0.0000000   1831.4649389   1831.4649389
 Leave Link  202 at Sat Aug 17 22:42:59 2024, MaxMem=   13107200 cpu:       0.0
 (Enter /programs/64bit/g09/g09-gfortran/bin/l301.exe)
 Standard basis: CC-pVTZ (5D, 7F)
 Ernie: Thresh=  0.10000D-02 Tol=  0.10000D-05 Strict=F.
 AO basis set in the form of general basis input (Overlap normalization):
      1 0
 S   3 1.00       0.000000000000
      0.3387000000D+02  0.2549486323D-01
      0.5095000000D+01  0.1903627659D+00
      0.1159000000D+01  0.8521620222D+00
 S   1 1.00       0.000000000000
      0.3258000000D+00  0.1000000000D+01
 S   1 1.00       0.000000000000
      0.1027000000D+00  0.1000000000D+01
 P   1 1.00       0.000000000000
      0.1407000000D+01  0.1000000000D+01
 P   1 1.00       0.000000000000
      0.3880000000D+00  0.1000000000D+01
 D   1 1.00       0.000000000000
      0.1057000000D+01  0.1000000000D+01
 ****
      2 0
 S   3 1.00       0.000000000000
      0.3387000000D+02  0.2549486323D-01
      0.5095000000D+01  0.1903627659D+00
      0.1159000000D+01  0.8521620222D+00
 S   1 1.00       0.000000000000
      0.3258000000D+00  0.1000000000D+01
 S   1 1.00       0.000000000000
      0.1027000000D+00  0.1000000000D+01
 P   1 1.00       0.000000000000
      0.1407000000D+01  0.1000000000D+01
 P   1 1.00       0.000000000000
      0.3880000000D+00  0.1000000000D+01
 D   1 1.00       0.000000000000
      0.1057000000D+01  0.1000000000D+01
 ****

 There are     7 symmetry adapted basis functions of AG  symmetry.
 There are     1 symmetry adapted basis functions of B1G symmetry.
 There are     3 symmetry adapted basis functions of B2G symmetry.
 There are     3 symmetry adapted basis functions of B3G symmetry.
 There are     1 symmetry adapted basis functions of AU  symmetry.
 There are     7 symmetry adapted basis functions of B1U symmetry.
 There are     3 symmetry adapted basis functions of B2U symmetry.
 There are     3 symmetry adapted basis functions of B3U symmetry.
 Integral buffers will be    131072 words long.
 Raffenetti 2 integral format.
 Two-electron integral symmetry is turned on.
    28 basis functions,    34 primitive gaussians,    30 cartesian basis functions
     1 alpha electrons        1 beta electrons
       nuclear repulsion energy         0.7151043359 Hartrees.
 IExCor=  402 DFT=T Ex+Corr=B3LYP ExCW=0 ScaHFX=  0.200000
 ScaDFX=  0.800000  0.720000  1.000000  0.810000 ScalE2=  1.000000  1.000000
 IRadAn=      0 IRanWt=     -1 IRanGd=            0 ICorTp=0
 NAtoms=    2 NActive=    2 NUniq=    1 SFac= 3.00D+00 NAtFMM=   80 NAOKFM=F Big=F
 Leave Link  301 at Sat Aug 17 22:42:59 2024, MaxMem=   13107200 cpu:       0.1
 (Enter /programs/64bit/g09/g09-gfortran/bin/l302.exe)
 NPDir=0 NMtPBC=     1 NCelOv=     1 NCel=       1 NClECP=     1 NCelD=      1
         NCelK=      1 NCelE2=     1 NClLst=     1 CellRange=     0.0.
 One-electron integrals computed using PRISM.
 One-electron integral symmetry used in STVInt
 NBasis=    28 RedAO= T  NBF=     7     1     3     3     1     7     3     3
 NBsUse=    28 1.00D-06 NBFU=     7     1     3     3     1     7     3     3
 Precomputing XC quadrature grid using
 IXCGrd= 2 IRadAn=           0 IRanWt=          -1 IRanGd=           0 AccXCQ= 1.00D-10.
 NRdTot=     124 NPtTot=       15460 NUsed=       16367 NTot=       16399
 NSgBfM=    30    30    30    30    30 NAtAll=     2     2.
 Leave Link  302 at Sat Aug 17 22:42:59 2024, MaxMem=   13107200 cpu:       0.2
 (Enter /programs/64bit/g09/g09-gfortran/bin/l303.exe)
 DipDrv:  MaxL=1.
 Leave Link  303 at Sat Aug 17 22:42:59 2024, MaxMem=   13107200 cpu:       0.0
 (Enter /programs/64bit/g09/g09-gfortran/bin/l401.exe)
 Harris functional with IExCor=  402 diagonalized for initial guess.
 ExpMin= 1.03D-01 ExpMax= 3.39D+01 ExpMxC= 3.39D+01 IAcc=1 IRadAn=         1 AccDes= 0.00D+00
 HarFok:  IExCor=  402 AccDes= 0.00D+00 IRadAn=         1 IDoV= 1
 ScaDFX=  1.000000  1.000000  1.000000  1.000000
 FoFCou: FMM=F IPFlag=           0 FMFlag=      100000 FMFlg1=           0
         NFxFlg=           0 DoJE=T BraDBF=F KetDBF=T FulRan=T
         Omega=  0.000000  0.000000  1.000000  0.000000  0.000000 ICntrl=     500 IOpCl=  0
         NMat0=    1 NMatS0=    1 NMatT0=    0 NMatD0=    1 NMtDS0=    0 NMtDT0=    0
         I1Cent=           4 NGrid=           0.
 Petite list used in FoFCou.
 Harris En= -1.18673449039943    
 Initial guess orbital symmetries:
       Occupied  (SGG)
       Virtual   (SGU) (SGG) (SGU) (PIU) (PIU) (SGG) (PIG) (PIG)
                 (SGU) (SGU) (SGG) (DLTG) (DLTG) (PIU) (PIU) (SGG)
                 (PIG) (PIG) (DLTU) (DLTU) (PIU) (PIU) (SGU) (PIG)
                 (PIG) (SGG) (SGU)
 The electronic state of the initial guess is 1-SGG.
 Leave Link  401 at Sat Aug 17 22:43:00 2024, MaxMem=   13107200 cpu:       0.2
 (Enter /programs/64bit/g09/g09-gfortran/bin/l502.exe)
 Closed shell SCF:
 Requested convergence on RMS density matrix=1.00D-08 within 128 cycles.
 Requested convergence on MAX density matrix=1.00D-06.
 Requested convergence on             energy=1.00D-06.
 No special actions if energy rises.
 Using DIIS extrapolation, IDIIS=  1040.
 Integral symmetry usage will be decided dynamically.
        16336 words used for storage of precomputed grid.
 Keep R1 ints in memory in canonical form, NReq=1004651.
 IEnd=       37698 IEndB=       37698 NGot=    13107200 MDV=    12978700
 LenX=    12978700 LenY=    12977359
 Symmetry not used in FoFDir.
 MinBra= 0 MaxBra= 2 Meth= 1.
 IRaf=       0 NMat=   1 IRICut=       1 DoRegI=T DoRafI=F ISym2E= 0 JSym2E=0.
 Integral accuracy reduced to 1.0D-05 until final iterations.

 Cycle   1  Pass 0  IDiag  1:
 E= -1.17430354153230    
 DIIS: error= 2.27D-02 at cycle   1 NSaved=   1.
 NSaved= 1 IEnMin= 1 EnMin= -1.17430354153230     IErMin= 1 ErrMin= 2.27D-02
 ErrMax= 2.27D-02 EMaxC= 1.00D-01 BMatC= 3.94D-03 BMatP= 3.94D-03
 IDIUse=3 WtCom= 7.73D-01 WtEn= 2.27D-01
 Coeff-Com:  0.100D+01
 Coeff-En:   0.100D+01
 Coeff:      0.100D+01
 Gap=     0.479 Goal=   None    Shift=    0.000
 GapD=    0.479 DampG=2.000 DampE=0.500 DampFc=1.0000 IDamp=-1.
 RMSDP=1.87D-03 MaxDP=1.05D-02              OVMax= 6.59D-02

 Cycle   2  Pass 0  IDiag  1:
 E= -1.17971712636715     Delta-E=       -0.005413584835 Rises=F Damp=F
 DIIS: error= 5.87D-03 at cycle   2 NSaved=   2.
 NSaved= 2 IEnMin= 2 EnMin= -1.17971712636715     IErMin= 2 ErrMin= 5.87D-03
 ErrMax= 5.87D-03 EMaxC= 1.00D-01 BMatC= 1.84D-04 BMatP= 3.94D-03
 IDIUse=3 WtCom= 9.41D-01 WtEn= 5.87D-02
 Coeff-Com:  0.174D+00 0.826D+00
 Coeff-En:   0.000D+00 0.100D+01
 Coeff:      0.164D+00 0.836D+00
 Gap=     0.494 Goal=   None    Shift=    0.000
 RMSDP=3.46D-04 MaxDP=2.24D-03 DE=-5.41D-03 OVMax= 1.23D-02

 Cycle   3  Pass 0  IDiag  1:
 E= -1.17999432315689     Delta-E=       -0.000277196790 Rises=F Damp=F
 DIIS: error= 1.10D-04 at cycle   3 NSaved=   3.
 NSaved= 3 IEnMin= 3 EnMin= -1.17999432315689     IErMin= 3 ErrMin= 1.10D-04
 ErrMax= 1.10D-04 EMaxC= 1.00D-01 BMatC= 1.36D-07 BMatP= 1.84D-04
 IDIUse=3 WtCom= 9.99D-01 WtEn= 1.10D-03
 Coeff-Com: -0.934D-02-0.165D-01 0.103D+01
 Coeff-En:   0.000D+00 0.000D+00 0.100D+01
 Coeff:     -0.933D-02-0.165D-01 0.103D+01
 Gap=     0.493 Goal=   None    Shift=    0.000
 RMSDP=9.62D-06 MaxDP=5.78D-05 DE=-2.77D-04 OVMax= 3.19D-04

 Initial convergence to 1.0D-05 achieved.  Increase integral accuracy.
 Cycle   4  Pass 1  IDiag  1:
 E= -1.17999309689378     Delta-E=        0.000001226263 Rises=F Damp=F
 DIIS: error= 1.42D-06 at cycle   1 NSaved=   1.
 NSaved= 1 IEnMin= 1 EnMin= -1.17999309689378     IErMin= 1 ErrMin= 1.42D-06
 ErrMax= 1.42D-06 EMaxC= 1.00D-01 BMatC= 1.22D-11 BMatP= 1.22D-11
 IDIUse=1 WtCom= 1.00D+00 WtEn= 0.00D+00
 Coeff-Com:  0.100D+01
 Coeff:      0.100D+01
 Gap=     0.493 Goal=   None    Shift=    0.000
 RMSDP=9.62D-06 MaxDP=5.78D-05 DE= 1.23D-06 OVMax= 3.47D-06

 Cycle   5  Pass 1  IDiag  1:
 E= -1.17999309691287     Delta-E=       -0.000000000019 Rises=F Damp=F
 DIIS: error= 2.38D-07 at cycle   2 NSaved=   2.
 NSaved= 2 IEnMin= 2 EnMin= -1.17999309691287     IErMin= 2 ErrMin= 2.38D-07
 ErrMax= 2.38D-07 EMaxC= 1.00D-01 BMatC= 3.99D-13 BMatP= 1.22D-11
 IDIUse=1 WtCom= 1.00D+00 WtEn= 0.00D+00
 Coeff-Com:  0.379D-01 0.962D+00
 Coeff:      0.379D-01 0.962D+00
 Gap=     0.493 Goal=   None    Shift=    0.000
 RMSDP=1.65D-08 MaxDP=9.98D-08 DE=-1.91D-11 OVMax= 5.50D-07

 Cycle   6  Pass 1  IDiag  1:
 E= -1.17999309691333     Delta-E=       -0.000000000000 Rises=F Damp=F
 DIIS: error= 4.00D-08 at cycle   3 NSaved=   3.
 NSaved= 3 IEnMin= 3 EnMin= -1.17999309691333     IErMin= 3 ErrMin= 4.00D-08
 ErrMax= 4.00D-08 EMaxC= 1.00D-01 BMatC= 8.54D-15 BMatP= 3.99D-13
 IDIUse=1 WtCom= 1.00D+00 WtEn= 0.00D+00
 Coeff-Com: -0.111D-01 0.114D+00 0.897D+00
 Coeff:     -0.111D-01 0.114D+00 0.897D+00
 Gap=     0.493 Goal=   None    Shift=    0.000
 RMSDP=2.32D-09 MaxDP=1.44D-08 DE=-4.61D-13 OVMax= 8.60D-08

 SCF Done:  E(RB3LYP) =  -1.17999309691     A.U. after    6 cycles
             Convg  =    0.2323D-08             -V/T =  2.0339
 KE= 1.141316075295D+00 PE=-3.646644151727D+00 EE= 6.102306435870D-01
 Leave Link  502 at Sat Aug 17 22:43:00 2024, MaxMem=   13107200 cpu:       0.3
 (Enter /programs/64bit/g09/g09-gfortran/bin/l601.exe)
 Copying SCF densities to generalized density rwf, IOpCl= 0 IROHF=0.

 **********************************************************************

            Population analysis using the SCF density.

 **********************************************************************

 Orbital symmetries:
       Occupied  (SGG)
       Virtual   (SGU) (SGG) (SGU) (PIU) (PIU) (SGG) (PIG) (PIG)
                 (SGU) (SGU) (SGG) (DLTG) (DLTG) (PIU) (PIU) (SGG)
                 (PIG) (PIG) (DLTU) (DLTU) (PIU) (PIU) (SGU) (PIG)
                 (PIG) (SGG) (SGU)
 The electronic state is 1-SGG.
 Alpha  occ. eigenvalues --   -0.43469
 Alpha virt. eigenvalues --    0.05867   0.19554   0.47172   0.51186   0.51186
 Alpha virt. eigenvalues --    0.91183   0.93776   0.93776   1.36814   2.03566
 Alpha virt. eigenvalues --    2.09196   2.88275   2.88275   3.08114   3.08114
 Alpha virt. eigenvalues --    3.35773   3.59862   3.59862   3.79620   3.79620
 Alpha virt. eigenvalues --    3.81045   3.81045   4.35501   5.39752   5.39752
 Alpha virt. eigenvalues --    5.45984   6.53663
     Molecular Orbital Coefficients:
                           1         2         3         4         5
                       (SGG)--O  (SGU)--V  (SGG)--V  (SGU)--V  (PIU)--V
     Eigenvalues --    -0.43469   0.05867   0.19554   0.47172   0.51186
   1 1   H  1S          0.19846   0.08954  -0.08285  -0.15254   0.00000
   2        2S          0.27061  -0.08826  -0.69451  -2.11251   0.00000
   3        3S          0.14298   2.05772   0.84138   2.44640   0.00000
   4        4PX         0.00000   0.00000   0.00000   0.00000   0.00000
   5        4PY         0.00000   0.00000   0.00000   0.00000  -0.04668
   6        4PZ        -0.01144   0.02693   0.01715   0.06528   0.00000
   7        5PX         0.00000   0.00000   0.00000   0.00000   0.00000
   8        5PY         0.00000   0.00000   0.00000   0.00000   0.57157
   9        5PZ        -0.01095   0.09159  -0.03334   0.17641   0.00000
  10        6D 0        0.00032  -0.01214   0.00550  -0.05705   0.00000
  11        6D+1        0.00000   0.00000   0.00000   0.00000   0.00000
  12        6D-1        0.00000   0.00000   0.00000   0.00000   0.00645
  13        6D+2        0.00000  -0.00000  -0.00000  -0.00000   0.00000
  14        6D-2        0.00000   0.00000   0.00000   0.00000   0.00000
  15 2   H  1S          0.19846  -0.08954  -0.08285   0.15254   0.00000
  16        2S          0.27061   0.08826  -0.69451   2.11251   0.00000
  17        3S          0.14298  -2.05772   0.84138  -2.44640   0.00000
  18        4PX         0.00000   0.00000   0.00000   0.00000   0.00000
  19        4PY         0.00000   0.00000   0.00000   0.00000  -0.04668
  20        4PZ         0.01144   0.02693  -0.01715   0.06528   0.00000
  21        5PX         0.00000   0.00000   0.00000   0.00000   0.00000
  22        5PY         0.00000   0.00000   0.00000   0.00000   0.57157
  23        5PZ         0.01095   0.09159   0.03334   0.17641   0.00000
  24        6D 0        0.00032   0.01214   0.00550   0.05705   0.00000
  25        6D+1        0.00000   0.00000   0.00000   0.00000   0.00000
  26        6D-1        0.00000   0.00000   0.00000   0.00000  -0.00645
  27        6D+2        0.00000   0.00000  -0.00000   0.00000   0.00000
  28        6D-2        0.00000   0.00000   0.00000   0.00000   0.00000
                           6         7         8         9        10
                       (PIU)--V  (SGG)--V  (PIG)--V  (PIG)--V  (SGU)--V
     Eigenvalues --     0.51186   0.91183   0.93776   0.93776   1.36814
   1 1   H  1S          0.00000   0.00537   0.00000   0.00000   0.02668
   2        2S          0.00000   0.67851   0.00000   0.00000  13.01575
   3        3S          0.00000  -0.37409   0.00000   0.00000  -0.32895
   4        4PX        -0.04668   0.00000   0.00000  -0.05521   0.00000
   5        4PY         0.00000   0.00000  -0.05521   0.00000   0.00000
   6        4PZ         0.00000  -0.08600   0.00000   0.00000  -0.12799
   7        5PX         0.57157   0.00000   0.00000   1.40143   0.00000
   8        5PY         0.00000   0.00000   1.40143   0.00000   0.00000
   9        5PZ         0.00000   1.04566   0.00000   0.00000  -6.16682
  10        6D 0        0.00000  -0.06025   0.00000   0.00000   0.27508
  11        6D+1        0.00645   0.00000   0.00000  -0.09921   0.00000
  12        6D-1        0.00000   0.00000  -0.09921   0.00000   0.00000
  13        6D+2        0.00000  -0.00000   0.00000   0.00000   0.00000
  14        6D-2        0.00000   0.00000   0.00000   0.00000   0.00000
  15 2   H  1S          0.00000   0.00537   0.00000   0.00000  -0.02668
  16        2S          0.00000   0.67851   0.00000   0.00000 -13.01575
  17        3S          0.00000  -0.37409   0.00000   0.00000   0.32895
  18        4PX        -0.04668   0.00000   0.00000   0.05521   0.00000
  19        4PY         0.00000   0.00000   0.05521   0.00000   0.00000
  20        4PZ         0.00000   0.08600   0.00000   0.00000  -0.12799
  21        5PX         0.57157   0.00000   0.00000  -1.40143   0.00000
  22        5PY         0.00000   0.00000  -1.40143   0.00000   0.00000
  23        5PZ         0.00000  -1.04566   0.00000   0.00000  -6.16682
  24        6D 0        0.00000  -0.06025   0.00000   0.00000  -0.27508
  25        6D+1       -0.00645   0.00000   0.00000  -0.09921   0.00000
  26        6D-1        0.00000   0.00000  -0.09921   0.00000   0.00000
  27        6D+2        0.00000  -0.00000   0.00000   0.00000  -0.00000
  28        6D-2        0.00000   0.00000   0.00000   0.00000   0.00000
                          11        12        13        14        15
                       (SGU)--V  (SGG)--V  (DLTG)--  (DLTG)--  (PIU)--V
     Eigenvalues --     2.03566   2.09196   2.88275   2.88275   3.08114
   1 1   H  1S         -0.65709  -0.95598   0.00000   0.00000   0.00000
   2        2S          3.36715   1.01161   0.00000  -0.00000   0.00000
   3        3S         -1.41010  -0.40510   0.00000   0.00000   0.00000
   4        4PX         0.00000   0.00000   0.00000   0.00000   0.00000
   5        4PY         0.00000   0.00000   0.00000   0.00000   0.59586
   6        4PZ        -0.52323   0.10668   0.00000   0.00000   0.00000
   7        5PX         0.00000   0.00000   0.00000   0.00000   0.00000
   8        5PY         0.00000   0.00000   0.00000   0.00000  -0.36817
   9        5PZ        -0.62510  -0.24627   0.00000   0.00000   0.00000
  10        6D 0        0.39848  -0.10815   0.00000   0.00000   0.00000
  11        6D+1        0.00000   0.00000   0.00000   0.00000   0.00000
  12        6D-1        0.00000   0.00000   0.00000   0.00000  -0.31514
  13        6D+2        0.00000   0.00000   0.00000   0.60729   0.00000
  14        6D-2        0.00000   0.00000   0.60729   0.00000   0.00000
  15 2   H  1S          0.65709  -0.95598   0.00000   0.00000   0.00000
  16        2S         -3.36715   1.01161   0.00000  -0.00000   0.00000
  17        3S          1.41010  -0.40510   0.00000   0.00000   0.00000
  18        4PX         0.00000   0.00000   0.00000   0.00000   0.00000
  19        4PY         0.00000   0.00000   0.00000   0.00000   0.59586
  20        4PZ        -0.52323  -0.10668   0.00000  -0.00000   0.00000
  21        5PX         0.00000   0.00000   0.00000   0.00000   0.00000
  22        5PY         0.00000   0.00000   0.00000   0.00000  -0.36817
  23        5PZ        -0.62510   0.24627   0.00000  -0.00000   0.00000
  24        6D 0       -0.39848  -0.10815   0.00000   0.00000   0.00000
  25        6D+1        0.00000   0.00000   0.00000   0.00000   0.00000
  26        6D-1        0.00000   0.00000   0.00000   0.00000   0.31514
  27        6D+2       -0.00000   0.00000   0.00000   0.60729   0.00000
  28        6D-2        0.00000   0.00000   0.60729   0.00000   0.00000
                          16        17        18        19        20
                       (PIU)--V  (SGG)--V  (PIG)--V  (PIG)--V  (DLTU)--
     Eigenvalues --     3.08114   3.35773   3.59862   3.59862   3.79620
   1 1   H  1S          0.00000   0.05283   0.00000   0.00000   0.00000
   2        2S          0.00000   0.29792   0.00000   0.00000   0.00000
   3        3S          0.00000  -0.16477   0.00000   0.00000   0.00000
   4        4PX         0.59586   0.00000   0.00000  -0.52754   0.00000
   5        4PY         0.00000   0.00000  -0.52754   0.00000   0.00000
   6        4PZ         0.00000  -0.82276   0.00000   0.00000   0.00000
   7        5PX        -0.36817   0.00000   0.00000   1.14731   0.00000
   8        5PY         0.00000   0.00000   1.14731   0.00000   0.00000
   9        5PZ         0.00000   0.87558   0.00000   0.00000   0.00000
  10        6D 0        0.00000  -0.40416   0.00000   0.00000   0.00000
  11        6D+1       -0.31514   0.00000   0.00000  -0.79984   0.00000
  12        6D-1        0.00000   0.00000  -0.79984   0.00000   0.00000
  13        6D+2        0.00000   0.00000   0.00000   0.00000   0.00000
  14        6D-2        0.00000   0.00000   0.00000   0.00000   0.88097
  15 2   H  1S          0.00000   0.05283   0.00000   0.00000   0.00000
  16        2S          0.00000   0.29792   0.00000   0.00000   0.00000
  17        3S          0.00000  -0.16477   0.00000   0.00000   0.00000
  18        4PX         0.59586   0.00000   0.00000   0.52754   0.00000
  19        4PY         0.00000   0.00000   0.52754   0.00000   0.00000
  20        4PZ         0.00000   0.82276   0.00000   0.00000   0.00000
  21        5PX        -0.36817   0.00000   0.00000  -1.14731   0.00000
  22        5PY         0.00000   0.00000  -1.14731   0.00000   0.00000
  23        5PZ         0.00000  -0.87558   0.00000   0.00000   0.00000
  24        6D 0        0.00000  -0.40416   0.00000   0.00000   0.00000
  25        6D+1        0.31514   0.00000   0.00000  -0.79984   0.00000
  26        6D-1        0.00000   0.00000  -0.79984   0.00000   0.00000
  27        6D+2        0.00000   0.00000   0.00000   0.00000   0.00000
  28        6D-2        0.00000   0.00000   0.00000   0.00000  -0.88097
                          21        22        23        24        25
                       (DLTU)--  (PIU)--V  (PIU)--V  (SGU)--V  (PIG)--V
     Eigenvalues --     3.79620   3.81045   3.81045   4.35501   5.39752
   1 1   H  1S          0.00000   0.00000   0.00000   0.69016   0.00000
   2        2S         -0.00000   0.00000   0.00000   7.23680   0.00000
   3        3S          0.00000   0.00000   0.00000   0.11093   0.00000
   4        4PX         0.00000   0.65028   0.00000   0.00000   0.00000
   5        4PY         0.00000   0.00000   0.65028   0.00000  -1.05998
   6        4PZ        -0.00000   0.00000   0.00000   0.19763   0.00000
   7        5PX         0.00000  -0.24692   0.00000   0.00000   0.00000
   8        5PY         0.00000   0.00000  -0.24692   0.00000  -0.49662
   9        5PZ         0.00000   0.00000   0.00000  -3.79160   0.00000
  10        6D 0       -0.00000   0.00000   0.00000   0.95892   0.00000
  11        6D+1        0.00000   0.56818   0.00000   0.00000   0.00000
  12        6D-1        0.00000   0.00000   0.56818   0.00000   1.37578
  13        6D+2        0.88097   0.00000   0.00000   0.00000   0.00000
  14        6D-2        0.00000   0.00000   0.00000   0.00000   0.00000
  15 2   H  1S         -0.00000   0.00000   0.00000  -0.69016   0.00000
  16        2S          0.00000   0.00000   0.00000  -7.23680   0.00000
  17        3S         -0.00000   0.00000   0.00000  -0.11093   0.00000
  18        4PX         0.00000   0.65028   0.00000   0.00000   0.00000
  19        4PY         0.00000   0.00000   0.65028   0.00000   1.05998
  20        4PZ        -0.00000   0.00000   0.00000   0.19763   0.00000
  21        5PX         0.00000  -0.24692   0.00000   0.00000   0.00000
  22        5PY         0.00000   0.00000  -0.24692   0.00000   0.49662
  23        5PZ         0.00000   0.00000   0.00000  -3.79160   0.00000
  24        6D 0        0.00000   0.00000   0.00000  -0.95892   0.00000
  25        6D+1        0.00000  -0.56818   0.00000   0.00000   0.00000
  26        6D-1        0.00000   0.00000  -0.56818   0.00000   1.37578
  27        6D+2       -0.88097   0.00000   0.00000  -0.00000   0.00000
  28        6D-2        0.00000   0.00000   0.00000   0.00000   0.00000
                          26        27        28
                       (PIG)--V  (SGG)--V  (SGU)--V
     Eigenvalues --     5.39752   5.45984   6.53663
   1 1   H  1S          0.00000   1.21167   1.55115
   2        2S          0.00000  -0.56910   4.42356
   3        3S          0.00000   0.09006  -0.62559
   4        4PX        -1.05998   0.00000   0.00000
   5        4PY         0.00000   0.00000   0.00000
   6        4PZ         0.00000  -0.04473  -1.97854
   7        5PX        -0.49662   0.00000   0.00000
   8        5PY         0.00000   0.00000   0.00000
   9        5PZ         0.00000   0.73126  -1.69678
  10        6D 0        0.00000  -1.12759   1.02888
  11        6D+1        1.37578   0.00000   0.00000
  12        6D-1        0.00000   0.00000   0.00000
  13        6D+2        0.00000  -0.00000  -0.00000
  14        6D-2        0.00000   0.00000   0.00000
  15 2   H  1S          0.00000   1.21167  -1.55115
  16        2S          0.00000  -0.56910  -4.42356
  17        3S          0.00000   0.09006   0.62559
  18        4PX         1.05998   0.00000   0.00000
  19        4PY         0.00000   0.00000   0.00000
  20        4PZ         0.00000   0.04473  -1.97854
  21        5PX         0.49662   0.00000   0.00000
  22        5PY         0.00000   0.00000   0.00000
  23        5PZ         0.00000  -0.73126  -1.69678
  24        6D 0        0.00000  -1.12759  -1.02888
  25        6D+1        1.37578   0.00000   0.00000
  26        6D-1        0.00000   0.00000   0.00000
  27        6D+2        0.00000  -0.00000   0.00000
  28        6D-2        0.00000   0.00000   0.00000
     Density Matrix:
                           1         2         3         4         5
   1 1   H  1S          0.07877
   2        2S          0.10741   0.14646
   3        3S          0.05675   0.07739   0.04089
   4        4PX        -0.00000  -0.00000  -0.00000   0.00000
   5        4PY        -0.00000  -0.00000  -0.00000   0.00000   0.00000
   6        4PZ        -0.00454  -0.00619  -0.00327   0.00000   0.00000
   7        5PX        -0.00000  -0.00000  -0.00000   0.00000   0.00000
   8        5PY        -0.00000  -0.00000  -0.00000   0.00000   0.00000
   9        5PZ        -0.00434  -0.00592  -0.00313   0.00000   0.00000
  10        6D 0        0.00013   0.00017   0.00009  -0.00000  -0.00000
  11        6D+1        0.00000   0.00000   0.00000  -0.00000   0.00000
  12        6D-1        0.00000   0.00000   0.00000  -0.00000  -0.00000
  13        6D+2        0.00000   0.00000   0.00000  -0.00000  -0.00000
  14        6D-2        0.00000   0.00000   0.00000   0.00000   0.00000
  15 2   H  1S          0.07877   0.10741   0.05675  -0.00000  -0.00000
  16        2S          0.10741   0.14646   0.07739  -0.00000  -0.00000
  17        3S          0.05675   0.07739   0.04089  -0.00000  -0.00000
  18        4PX         0.00000   0.00000   0.00000  -0.00000   0.00000
  19        4PY         0.00000   0.00000   0.00000   0.00000  -0.00000
  20        4PZ         0.00454   0.00619   0.00327  -0.00000  -0.00000
  21        5PX         0.00000   0.00000   0.00000  -0.00000   0.00000
  22        5PY         0.00000   0.00000   0.00000   0.00000  -0.00000
  23        5PZ         0.00434   0.00592   0.00313  -0.00000  -0.00000
  24        6D 0        0.00013   0.00017   0.00009  -0.00000  -0.00000
  25        6D+1        0.00000   0.00000   0.00000  -0.00000   0.00000
  26        6D-1        0.00000   0.00000   0.00000  -0.00000  -0.00000
  27        6D+2        0.00000   0.00000   0.00000  -0.00000  -0.00000
  28        6D-2        0.00000   0.00000   0.00000   0.00000   0.00000
                           6         7         8         9        10
   6        4PZ         0.00026
   7        5PX         0.00000   0.00000
   8        5PY         0.00000   0.00000   0.00000
   9        5PZ         0.00025   0.00000   0.00000   0.00024
  10        6D 0       -0.00001  -0.00000  -0.00000  -0.00001   0.00000
  11        6D+1       -0.00000  -0.00000   0.00000  -0.00000   0.00000
  12        6D-1       -0.00000  -0.00000  -0.00000  -0.00000   0.00000
  13        6D+2       -0.00000  -0.00000  -0.00000  -0.00000   0.00000
  14        6D-2        0.00000   0.00000   0.00000   0.00000   0.00000
  15 2   H  1S         -0.00454  -0.00000  -0.00000  -0.00434   0.00013
  16        2S         -0.00619  -0.00000  -0.00000  -0.00592   0.00017
  17        3S         -0.00327  -0.00000  -0.00000  -0.00313   0.00009
  18        4PX        -0.00000  -0.00000   0.00000  -0.00000   0.00000
  19        4PY        -0.00000   0.00000  -0.00000  -0.00000   0.00000
  20        4PZ        -0.00026  -0.00000  -0.00000  -0.00025   0.00001
  21        5PX        -0.00000  -0.00000   0.00000  -0.00000   0.00000
  22        5PY        -0.00000   0.00000  -0.00000  -0.00000   0.00000
  23        5PZ        -0.00025  -0.00000  -0.00000  -0.00024   0.00001
  24        6D 0       -0.00001  -0.00000  -0.00000  -0.00001   0.00000
  25        6D+1       -0.00000  -0.00000   0.00000  -0.00000   0.00000
  26        6D-1       -0.00000  -0.00000  -0.00000  -0.00000   0.00000
  27        6D+2       -0.00000  -0.00000  -0.00000  -0.00000   0.00000
  28        6D-2        0.00000   0.00000   0.00000   0.00000   0.00000
                          11        12        13        14        15
  11        6D+1        0.00000
  12        6D-1        0.00000   0.00000
  13        6D+2        0.00000   0.00000   0.00000
  14        6D-2        0.00000  -0.00000   0.00000  -0.00000
  15 2   H  1S          0.00000   0.00000   0.00000   0.00000   0.07877
  16        2S          0.00000   0.00000   0.00000   0.00000   0.10741
  17        3S          0.00000   0.00000   0.00000   0.00000   0.05675
  18        4PX         0.00000   0.00000   0.00000  -0.00000   0.00000
  19        4PY         0.00000   0.00000   0.00000  -0.00000   0.00000
  20        4PZ         0.00000   0.00000   0.00000   0.00000   0.00454
  21        5PX         0.00000   0.00000   0.00000  -0.00000   0.00000
  22        5PY         0.00000   0.00000   0.00000  -0.00000   0.00000
  23        5PZ         0.00000   0.00000   0.00000   0.00000   0.00434
  24        6D 0        0.00000   0.00000   0.00000   0.00000   0.00013
  25        6D+1        0.00000   0.00000   0.00000  -0.00000   0.00000
  26        6D-1        0.00000   0.00000   0.00000  -0.00000   0.00000
  27        6D+2        0.00000   0.00000   0.00000   0.00000   0.00000
  28        6D-2        0.00000  -0.00000   0.00000  -0.00000   0.00000
                          16        17        18        19        20
  16        2S          0.14646
  17        3S          0.07739   0.04089
  18        4PX         0.00000   0.00000   0.00000
  19        4PY         0.00000   0.00000   0.00000   0.00000
  20        4PZ         0.00619   0.00327   0.00000   0.00000   0.00026
  21        5PX         0.00000   0.00000   0.00000   0.00000   0.00000
  22        5PY         0.00000   0.00000   0.00000   0.00000   0.00000
  23        5PZ         0.00592   0.00313   0.00000   0.00000   0.00025
  24        6D 0        0.00017   0.00009   0.00000   0.00000   0.00001
  25        6D+1        0.00000   0.00000   0.00000   0.00000   0.00000
  26        6D-1        0.00000   0.00000   0.00000   0.00000   0.00000
  27        6D+2        0.00000   0.00000   0.00000   0.00000   0.00000
  28        6D-2        0.00000   0.00000  -0.00000  -0.00000   0.00000
                          21        22        23        24        25
  21        5PX         0.00000
  22        5PY         0.00000   0.00000
  23        5PZ         0.00000   0.00000   0.00024
  24        6D 0        0.00000   0.00000   0.00001   0.00000
  25        6D+1        0.00000   0.00000   0.00000   0.00000   0.00000
  26        6D-1        0.00000   0.00000   0.00000   0.00000   0.00000
  27        6D+2        0.00000   0.00000   0.00000   0.00000   0.00000
  28        6D-2       -0.00000  -0.00000   0.00000   0.00000   0.00000
                          26        27        28
  26        6D-1        0.00000
  27        6D+2        0.00000   0.00000
  28        6D-2       -0.00000   0.00000  -0.00000
    Full Mulliken population analysis:
                           1         2         3         4         5
   1 1   H  1S          0.07877
   2        2S          0.07586   0.14646
   3        3S          0.02120   0.06105   0.04089
   4        4PX         0.00000   0.00000   0.00000   0.00000
   5        4PY         0.00000   0.00000   0.00000   0.00000   0.00000
   6        4PZ         0.00000   0.00000   0.00000  -0.00000   0.00000
   7        5PX         0.00000   0.00000   0.00000   0.00000   0.00000
   8        5PY         0.00000   0.00000   0.00000   0.00000   0.00000
   9        5PZ         0.00000   0.00000   0.00000  -0.00000   0.00000
  10        6D 0        0.00000   0.00000   0.00000   0.00000   0.00000
  11        6D+1        0.00000   0.00000   0.00000   0.00000   0.00000
  12        6D-1        0.00000   0.00000   0.00000   0.00000   0.00000
  13        6D+2        0.00000   0.00000   0.00000   0.00000   0.00000
  14        6D-2        0.00000   0.00000   0.00000   0.00000   0.00000
  15 2   H  1S          0.02128   0.04573   0.01761   0.00000   0.00000
  16        2S          0.04573   0.10651   0.05240   0.00000   0.00000
  17        3S          0.01761   0.05240   0.03698   0.00000   0.00000
  18        4PX         0.00000   0.00000   0.00000  -0.00000   0.00000
  19        4PY         0.00000   0.00000   0.00000   0.00000  -0.00000
  20        4PZ         0.00186   0.00159   0.00022   0.00000   0.00000
  21        5PX         0.00000   0.00000   0.00000  -0.00000   0.00000
  22        5PY         0.00000   0.00000   0.00000   0.00000  -0.00000
  23        5PZ         0.00246   0.00331   0.00071   0.00000   0.00000
  24        6D 0        0.00006   0.00002   0.00000   0.00000   0.00000
  25        6D+1        0.00000   0.00000   0.00000  -0.00000   0.00000
  26        6D-1        0.00000   0.00000   0.00000   0.00000  -0.00000
  27        6D+2        0.00000   0.00000   0.00000   0.00000   0.00000
  28        6D-2        0.00000   0.00000   0.00000   0.00000   0.00000
                           6         7         8         9        10
   6        4PZ         0.00026
   7        5PX        -0.00000   0.00000
   8        5PY         0.00000   0.00000   0.00000
   9        5PZ         0.00015  -0.00000   0.00000   0.00024
  10        6D 0        0.00000   0.00000   0.00000   0.00000   0.00000
  11        6D+1        0.00000   0.00000   0.00000   0.00000   0.00000
  12        6D-1        0.00000   0.00000   0.00000   0.00000   0.00000
  13        6D+2        0.00000   0.00000   0.00000   0.00000   0.00000
  14        6D-2        0.00000   0.00000   0.00000   0.00000   0.00000
  15 2   H  1S          0.00186   0.00000   0.00000   0.00246   0.00006
  16        2S          0.00159   0.00000   0.00000   0.00331   0.00002
  17        3S          0.00022   0.00000   0.00000   0.00071   0.00000
  18        4PX         0.00000  -0.00000   0.00000   0.00000   0.00000
  19        4PY         0.00000   0.00000  -0.00000   0.00000   0.00000
  20        4PZ         0.00012   0.00000   0.00000   0.00002   0.00000
  21        5PX         0.00000  -0.00000   0.00000   0.00000   0.00000
  22        5PY         0.00000   0.00000  -0.00000   0.00000   0.00000
  23        5PZ         0.00002   0.00000   0.00000  -0.00004  -0.00000
  24        6D 0        0.00000   0.00000   0.00000  -0.00000  -0.00000
  25        6D+1        0.00000  -0.00000   0.00000   0.00000   0.00000
  26        6D-1        0.00000   0.00000  -0.00000   0.00000   0.00000
  27        6D+2        0.00000   0.00000   0.00000   0.00000   0.00000
  28        6D-2        0.00000   0.00000   0.00000   0.00000   0.00000
                          11        12        13        14        15
  11        6D+1        0.00000
  12        6D-1        0.00000   0.00000
  13        6D+2       -0.00000   0.00000   0.00000
  14        6D-2        0.00000   0.00000   0.00000  -0.00000
  15 2   H  1S          0.00000   0.00000   0.00000   0.00000   0.07877
  16        2S          0.00000   0.00000   0.00000   0.00000   0.07586
  17        3S          0.00000   0.00000   0.00000   0.00000   0.02120
  18        4PX        -0.00000   0.00000  -0.00000   0.00000   0.00000
  19        4PY         0.00000  -0.00000   0.00000   0.00000   0.00000
  20        4PZ         0.00000   0.00000   0.00000   0.00000   0.00000
  21        5PX        -0.00000   0.00000  -0.00000   0.00000   0.00000
  22        5PY         0.00000  -0.00000   0.00000   0.00000   0.00000
  23        5PZ         0.00000   0.00000   0.00000   0.00000   0.00000
  24        6D 0        0.00000   0.00000   0.00000   0.00000   0.00000
  25        6D+1       -0.00000   0.00000  -0.00000   0.00000   0.00000
  26        6D-1        0.00000  -0.00000   0.00000   0.00000   0.00000
  27        6D+2       -0.00000   0.00000   0.00000   0.00000   0.00000
  28        6D-2        0.00000   0.00000   0.00000  -0.00000   0.00000
                          16        17        18        19        20
  16        2S          0.14646
  17        3S          0.06105   0.04089
  18        4PX         0.00000   0.00000   0.00000
  19        4PY         0.00000   0.00000   0.00000   0.00000
  20        4PZ         0.00000   0.00000   0.00000   0.00000   0.00026
  21        5PX         0.00000   0.00000   0.00000   0.00000   0.00000
  22        5PY         0.00000   0.00000   0.00000   0.00000   0.00000
  23        5PZ         0.00000   0.00000   0.00000   0.00000   0.00015
  24        6D 0        0.00000   0.00000   0.00000   0.00000   0.00000
  25        6D+1        0.00000   0.00000   0.00000   0.00000   0.00000
  26        6D-1        0.00000   0.00000   0.00000   0.00000   0.00000
  27        6D+2        0.00000   0.00000   0.00000   0.00000   0.00000
  28        6D-2        0.00000   0.00000   0.00000   0.00000   0.00000
                          21        22        23        24        25
  21        5PX         0.00000
  22        5PY         0.00000   0.00000
  23        5PZ         0.00000   0.00000   0.00024
  24        6D 0        0.00000   0.00000   0.00000   0.00000
  25        6D+1        0.00000   0.00000   0.00000   0.00000   0.00000
  26        6D-1        0.00000   0.00000   0.00000   0.00000   0.00000
  27        6D+2        0.00000   0.00000   0.00000   0.00000   0.00000
  28        6D-2        0.00000   0.00000   0.00000   0.00000   0.00000
                          26        27        28
  26        6D-1        0.00000
  27        6D+2        0.00000   0.00000
  28        6D-2        0.00000   0.00000  -0.00000
     Gross orbital populations:
                           1
   1 1   H  1S          0.26484
   2        2S          0.49294
   3        3S          0.23107
   4        4PX         0.00000
   5        4PY         0.00000
   6        4PZ         0.00422
   7        5PX         0.00000
   8        5PY         0.00000
   9        5PZ         0.00686
  10        6D 0        0.00008
  11        6D+1        0.00000
  12        6D-1        0.00000
  13        6D+2        0.00000
  14        6D-2        0.00000
  15 2   H  1S          0.26484
  16        2S          0.49294
  17        3S          0.23107
  18        4PX         0.00000
  19        4PY         0.00000
  20        4PZ         0.00422
  21        5PX         0.00000
  22        5PY         0.00000
  23        5PZ         0.00686
  24        6D 0        0.00008
  25        6D+1       -0.00000
  26        6D-1       -0.00000
  27        6D+2        0.00000
  28        6D-2        0.00000
          Condensed to atoms (all electrons):
              1          2
     1  H    0.583155   0.416845
     2  H    0.416845   0.583155
 Mulliken atomic charges:
              1
     1  H    0.000000
     2  H    0.000000
 Sum of Mulliken atomic charges =   0.00000
 Mulliken charges with hydrogens summed into heavy atoms:
              1
 Sum of Mulliken charges with hydrogens summed into heavy atoms =   0.00000
 Electronic spatial extent (au):  <R**2>=              5.2474
 Charge=              0.0000 electrons
 Dipole moment (field-independent basis, Debye):
    X=              0.0000    Y=             -0.0000    Z=             -0.0000  Tot=              0.0000
 Quadrupole moment (field-independent basis, Debye-Ang):
   XX=             -2.1022   YY=             -2.1022   ZZ=             -1.5385
   XY=             -0.0000   XZ=             -0.0000   YZ=              0.0000
 Traceless Quadrupole moment (field-independent basis, Debye-Ang):
   XX=             -0.1879   YY=             -0.1879   ZZ=              0.3758
   XY=             -0.0000   XZ=             -0.0000   YZ=              0.0000
 Octapole moment (field-independent basis, Debye-Ang**2):
  XXX=             -0.0000  YYY=              0.0000  ZZZ=              0.0000  XYY=             -0.0000
  XXY=             -0.0000  XXZ=              0.0000  XZZ=             -0.0000  YZZ=              0.0000
  YYZ=              0.0000  XYZ=              0.0000
 Hexadecapole moment (field-independent basis, Debye-Ang**3):
 XXXX=             -2.1813 YYYY=             -2.1813 ZZZZ=             -3.0218 XXXY=             -0.0000
 XXXZ=              0.0000 YYYX=             -0.0000 YYYZ=              0.0000 ZZZX=              0.0000
 ZZZY=              0.0000 XXYY=             -0.7271 XXZZ=             -0.8837 YYZZ=             -0.8837
 XXYZ=              0.0000 YYXZ=              0.0000 ZZXY=             -0.0000
 N-N= 7.151043359324D-01 E-N=-3.646644210251D+00  KE= 1.141316075295D+00
 Symmetry AG   KE= 1.141316075295D+00
 Symmetry B1G  KE= 5.728140288906D-67
 Symmetry B2G  KE= 6.570722131052D-33
 Symmetry B3G  KE= 6.570722131052D-33
 Symmetry AU   KE= 1.991558519763D-69
 Symmetry B1U  KE= 1.487753916879D-31
 Symmetry B2U  KE= 1.501476652057D-34
 Symmetry B3U  KE= 1.501476652057D-34
 Orbital energies and kinetic energies (alpha):
                                 1                 2
   1 (SGG)--O                 -0.434685          0.570658
   2 (SGU)--V                  0.058671          0.335411
   3 (SGG)--V                  0.195544          0.511577
   4 (SGU)--V                  0.471724          1.038871
   5 (PIU)--V                  0.511857          0.871019
   6 (PIU)--V                  0.511857          0.871019
   7 (SGG)--V                  0.911830          1.254964
   8 (PIG)--V                  0.937764          1.213251
   9 (PIG)--V                  0.937764          1.213251
  10 (SGU)--V                  1.368145          1.577224
  11 (SGU)--V                  2.035663          3.280518
  12 (SGG)--V                  2.091962          3.402426
  13 (DLTG)--V                 2.882747          3.412846
  14 (DLTG)--V                 2.882747          3.412846
  15 (PIU)--V                  3.081141          3.897205
  16 (PIU)--V                  3.081141          3.897205
  17 (SGG)--V                  3.357728          4.225132
  18 (PIG)--V                  3.598619          4.279588
  19 (PIG)--V                  3.598619          4.279588
  20 (DLTU)--V                 3.796197          4.302749
  21 (DLTU)--V                 3.796197          4.302749
  22 (PIU)--V                  3.810449          4.448843
  23 (PIU)--V                  3.810449          4.448843
  24 (SGU)--V                  4.355013          5.085710
  25 (PIG)--V                  5.397519          6.134633
  26 (PIG)--V                  5.397519          6.134633
  27 (SGG)--V                  5.459838          6.462004
  28 (SGU)--V                  6.536626          8.398720
 Total kinetic energy from orbitals= 1.141316075295D+00
 No NMR shielding tensors so no spin-rotation constants.
 Leave Link  601 at Sat Aug 17 22:43:00 2024, MaxMem=   13107200 cpu:       0.1
 (Enter /programs/64bit/g09/g09-gfortran/bin/l701.exe)
 Compute integral first derivatives.
 ... and contract with generalized density number  0.
 Leave Link  701 at Sat Aug 17 22:43:00 2024, MaxMem=   13107200 cpu:       0.1
 (Enter /programs/64bit/g09/g09-gfortran/bin/l702.exe)
 L702 exits ... SP integral derivatives will be done elsewhere.
 Leave Link  702 at Sat Aug 17 22:43:00 2024, MaxMem=   13107200 cpu:       0.0
 (Enter /programs/64bit/g09/g09-gfortran/bin/l703.exe)
 Compute integral first derivatives, UseDBF=F ICtDFT=           0.
 Integral derivatives from FoFDir, PRISM(SPDF).
 Calling FoFJK, ICntrl=      2127 FMM=F ISym2X=1 I1Cent= 0 IOpClX= 0 NMat=1 NMatS=1 NMatT=0.
 FoFCou: FMM=F IPFlag=           0 FMFlag=      100000 FMFlg1=         800
         NFxFlg=           0 DoJE=F BraDBF=F KetDBF=F FulRan=T
         Omega=  0.000000  0.000000  1.000000  0.000000  0.000000 ICntrl=    2127 IOpCl=  0
         NMat0=    1 NMatS0=    1 NMatT0=    0 NMatD0=    1 NMtDS0=    0 NMtDT0=    0
         I1Cent=           0 NGrid=           0.
 Petite list used in FoFCou.
 Leave Link  703 at Sat Aug 17 22:43:01 2024, MaxMem=   13107200 cpu:       0.2
 (Enter /programs/64bit/g09/g09-gfortran/bin/l716.exe)
 Dipole        = 7.39557099D-32-5.41667797D-35 0.00000000D+00
 ***** Axes restored to original set *****
 -------------------------------------------------------------------
 Center     Atomic                   Forces (Hartrees/Bohr)
 Number     Number              X              Y              Z
 -------------------------------------------------------------------
      1        1           0.000000000    0.000000000   -0.002065940
      2        1          -0.000000000   -0.000000000    0.002065940
 -------------------------------------------------------------------
 Cartesian Forces:  Max     0.002065940 RMS     0.001192771
 Leave Link  716 at Sat Aug 17 22:43:01 2024, MaxMem=   13107200 cpu:       0.0
 (Enter /programs/64bit/g09/g09-gfortran/bin/l103.exe)

 GradGradGradGradGradGradGradGradGradGradGradGradGradGradGradGradGradGrad
 Berny optimization.
 Internal  Forces:  Max     0.002065940 RMS     0.002065940
 Search for a local minimum.
 Step number   1 out of a maximum of   20
 All quantities printed in internal units (Hartrees-Bohrs-Radians)
 RMS Force = .20659D-02 SwitMx=.10000D-02 MixMth= 1
 Mixed Optimization -- RFO/linear search
 Second derivative matrix not updated -- first step.
 The second derivative matrix:
                          R1
           R1           0.39139
     Eigenvalues ---    0.39139
 RFO step:  Lambda=-1.09045803D-05 EMin= 3.91394209D-01
 Linear search not attempted -- first point.
 Iteration  1 RMS(Cart)=  0.00373230 RMS(Int)=  0.00000000
 Iteration  2 RMS(Cart)=  0.00000000 RMS(Int)=  0.00000000
 ClnCor:  largest displacement from symmetrization is 1.62D-19 for atom     1.
 Variable       Old X    -DE/DX   Delta X   Delta X   Delta X     New X
                                 (Linear)    (Quad)   (Total)
    R1        1.39840   0.00207   0.00000   0.00528   0.00528   1.40368
         Item               Value     Threshold  Converged?
 Maximum Force            0.002066     0.000450     NO 
 RMS     Force            0.002066     0.000300     NO 
 Maximum Displacement     0.002639     0.001800     NO 
 RMS     Displacement     0.003732     0.001200     NO 
 Predicted change in Energy=-5.452442D-06
 GradGradGradGradGradGradGradGradGradGradGradGradGradGradGradGradGradGrad

 Leave Link  103 at Sat Aug 17 22:43:01 2024, MaxMem=   13107200 cpu:       0.0
 (Enter /programs/64bit/g09/g09-gfortran/bin/l202.exe)
                          Input orientation:                          
 ---------------------------------------------------------------------
 Center     Atomic      Atomic             Coordinates (Angstroms)
 Number     Number       Type             X           Y           Z
 ---------------------------------------------------------------------
      1          1           0        0.000000    0.000000   -0.001397
      2          1           0        0.000000    0.000000    0.741397
 ---------------------------------------------------------------------
 Stoichiometry    H2
 Framework group  D*H[C*(H.H)]
 Deg. of freedom     1
 Full point group                 D*H     NOp   8
 Largest Abelian subgroup         D2H     NOp   8
 Largest concise Abelian subgroup C2      NOp   2
                         Standard orientation:                         
 ---------------------------------------------------------------------
 Center     Atomic      Atomic             Coordinates (Angstroms)
 Number     Number       Type             X           Y           Z
 ---------------------------------------------------------------------
      1          1           0        0.000000    0.000000    0.371397
      2          1           0        0.000000    0.000000   -0.371397
 ---------------------------------------------------------------------
 Rotational constants (GHZ):      0.0000000   1817.7170577   1817.7170577
 Leave Link  202 at Sat Aug 17 22:43:01 2024, MaxMem=   13107200 cpu:       0.0
 (Enter /programs/64bit/g09/g09-gfortran/bin/l301.exe)
 Standard basis: CC-pVTZ (5D, 7F)
 Ernie: Thresh=  0.10000D-02 Tol=  0.10000D-05 Strict=F.
 There are     7 symmetry adapted basis functions of AG  symmetry.
 There are     1 symmetry adapted basis functions of B1G symmetry.
 There are     3 symmetry adapted basis functions of B2G symmetry.
 There are     3 symmetry adapted basis functions of B3G symmetry.
 There are     1 symmetry adapted basis functions of AU  symmetry.
 There are     7 symmetry adapted basis functions of B1U symmetry.
 There are     3 symmetry adapted basis functions of B2U symmetry.
 There are     3 symmetry adapted basis functions of B3U symmetry.
 Integral buffers will be    131072 words long.
 Raffenetti 2 integral format.
 Two-electron integral symmetry is turned on.
    28 basis functions,    34 primitive gaussians,    30 cartesian basis functions
     1 alpha electrons        1 beta electrons
       nuclear repulsion energy         0.7124153168 Hartrees.
 IExCor=  402 DFT=T Ex+Corr=B3LYP ExCW=0 ScaHFX=  0.200000
 ScaDFX=  0.800000  0.720000  1.000000  0.810000 ScalE2=  1.000000  1.000000
 IRadAn=      0 IRanWt=     -1 IRanGd=            0 ICorTp=0
 NAtoms=    2 NActive=    2 NUniq=    1 SFac= 3.00D+00 NAtFMM=   80 NAOKFM=F Big=F
 Leave Link  301 at Sat Aug 17 22:43:01 2024, MaxMem=   13107200 cpu:       0.1
 (Enter /programs/64bit/g09/g09-gfortran/bin/l302.exe)
 NPDir=0 NMtPBC=     1 NCelOv=     1 NCel=       1 NClECP=     1 NCelD=      1
         NCelK=      1 NCelE2=     1 NClLst=     1 CellRange=     0.0.
 One-electron integrals computed using PRISM.
 One-electron integral symmetry used in STVInt
 NBasis=    28 RedAO= T  NBF=     7     1     3     3     1     7     3     3
 NBsUse=    28 1.00D-06 NBFU=     7     1     3     3     1     7     3     3
 Precomputing XC quadrature grid using
 IXCGrd= 2 IRadAn=           0 IRanWt=          -1 IRanGd=           0 AccXCQ= 1.00D-10.
 NRdTot=     124 NPtTot=       15460 NUsed=       16367 NTot=       16399
 NSgBfM=    30    30    30    30    30 NAtAll=     2     2.
 Leave Link  302 at Sat Aug 17 22:43:01 2024, MaxMem=   13107200 cpu:       0.2
 (Enter /programs/64bit/g09/g09-gfortran/bin/l303.exe)
 DipDrv:  MaxL=1.
 Leave Link  303 at Sat Aug 17 22:43:01 2024, MaxMem=   13107200 cpu:       0.0
 (Enter /programs/64bit/g09/g09-gfortran/bin/l401.exe)
 Initial guess read from the read-write file.
 B after Tr=     0.000000    0.000000    0.000000
         Rot=    1.000000    0.000000    0.000000    0.000000 Ang=   0.00 deg.
 Guess basis will be translated and rotated to current coordinates.
 Initial guess orbital symmetries:
       Occupied  (SGG)
       Virtual   (SGU) (SGG) (SGU) (PIU) (PIU) (SGG) (PIG) (PIG)
                 (SGU) (SGU) (SGG) (DLTG) (DLTG) (PIU) (PIU) (SGG)
                 (PIG) (PIG) (DLTU) (DLTU) (PIU) (PIU) (SGU) (PIG)
                 (PIG) (SGG) (SGU)
 The electronic state of the initial guess is 1-SGG.
 Leave Link  401 at Sat Aug 17 22:43:02 2024, MaxMem=   13107200 cpu:       0.1
 (Enter /programs/64bit/g09/g09-gfortran/bin/l502.exe)
 Closed shell SCF:
 Requested convergence on RMS density matrix=1.00D-08 within 128 cycles.
 Requested convergence on MAX density matrix=1.00D-06.
 Requested convergence on             energy=1.00D-06.
 No special actions if energy rises.
 Using DIIS extrapolation, IDIIS=  1040.
 Integral symmetry usage will be decided dynamically.
        16336 words used for storage of precomputed grid.
 Keep R1 ints in memory in canonical form, NReq=1004651.
 IEnd=       37698 IEndB=       37698 NGot=    13107200 MDV=    12978700
 LenX=    12978700 LenY=    12977359
 Symmetry not used in FoFDir.
 MinBra= 0 MaxBra= 2 Meth= 1.
 IRaf=       0 NMat=   1 IRICut=       1 DoRegI=T DoRafI=F ISym2E= 0 JSym2E=0.

 Cycle   1  Pass 1  IDiag  1:
 E= -1.17999763830318    
 DIIS: error= 2.96D-04 at cycle   1 NSaved=   1.
 NSaved= 1 IEnMin= 1 EnMin= -1.17999763830318     IErMin= 1 ErrMin= 2.96D-04
 ErrMax= 2.96D-04 EMaxC= 1.00D-01 BMatC= 1.04D-06 BMatP= 1.04D-06
 IDIUse=3 WtCom= 9.97D-01 WtEn= 2.96D-03
 Coeff-Com:  0.100D+01
 Coeff-En:   0.100D+01
 Coeff:      0.100D+01
 Gap=     0.493 Goal=   None    Shift=    0.000
 RMSDP=2.33D-05 MaxDP=1.75D-04              OVMax= 8.08D-04

 Cycle   2  Pass 1  IDiag  1:
 E= -1.17999870116465     Delta-E=       -0.000001062861 Rises=F Damp=F
 DIIS: error= 7.73D-05 at cycle   2 NSaved=   2.
 NSaved= 2 IEnMin= 2 EnMin= -1.17999870116465     IErMin= 2 ErrMin= 7.73D-05
 ErrMax= 7.73D-05 EMaxC= 1.00D-01 BMatC= 2.92D-08 BMatP= 1.04D-06
 IDIUse=1 WtCom= 1.00D+00 WtEn= 0.00D+00
 Coeff-Com:  0.119D+00 0.881D+00
 Coeff:      0.119D+00 0.881D+00
 Gap=     0.492 Goal=   None    Shift=    0.000
 RMSDP=4.71D-06 MaxDP=2.99D-05 DE=-1.06D-06 OVMax= 1.66D-04

 Cycle   3  Pass 1  IDiag  1:
 E= -1.17999874606905     Delta-E=       -0.000000044904 Rises=F Damp=F
 DIIS: error= 4.87D-06 at cycle   3 NSaved=   3.
 NSaved= 3 IEnMin= 3 EnMin= -1.17999874606905     IErMin= 3 ErrMin= 4.87D-06
 ErrMax= 4.87D-06 EMaxC= 1.00D-01 BMatC= 2.17D-10 BMatP= 2.92D-08
 IDIUse=1 WtCom= 1.00D+00 WtEn= 0.00D+00
 Coeff-Com: -0.974D-02 0.318D-01 0.978D+00
 Coeff:     -0.974D-02 0.318D-01 0.978D+00
 Gap=     0.492 Goal=   None    Shift=    0.000
 RMSDP=3.30D-07 MaxDP=2.04D-06 DE=-4.49D-08 OVMax= 1.15D-05

 Cycle   4  Pass 1  IDiag  1:
 E= -1.17999874634996     Delta-E=       -0.000000000281 Rises=F Damp=F
 DIIS: error= 1.52D-08 at cycle   4 NSaved=   4.
 NSaved= 4 IEnMin= 4 EnMin= -1.17999874634996     IErMin= 4 ErrMin= 1.52D-08
 ErrMax= 1.52D-08 EMaxC= 1.00D-01 BMatC= 1.76D-15 BMatP= 2.17D-10
 IDIUse=1 WtCom= 1.00D+00 WtEn= 0.00D+00
 Coeff-Com:  0.686D-03-0.224D-02-0.694D-01 0.107D+01
 Coeff:      0.686D-03-0.224D-02-0.694D-01 0.107D+01
 Gap=     0.492 Goal=   None    Shift=    0.000
 RMSDP=1.88D-09 MaxDP=1.46D-08 DE=-2.81D-10 OVMax= 3.20D-08

 SCF Done:  E(RB3LYP) =  -1.17999874635     A.U. after    4 cycles
             Convg  =    0.1876D-08             -V/T =  2.0363
 KE= 1.138618612599D+00 PE=-3.640262517362D+00 EE= 6.092298415916D-01
 Leave Link  502 at Sat Aug 17 22:43:02 2024, MaxMem=   13107200 cpu:       0.2
 (Enter /programs/64bit/g09/g09-gfortran/bin/l701.exe)
 Compute integral first derivatives.
 ... and contract with generalized density number  0.
 Leave Link  701 at Sat Aug 17 22:43:02 2024, MaxMem=   13107200 cpu:       0.1
 (Enter /programs/64bit/g09/g09-gfortran/bin/l702.exe)
 L702 exits ... SP integral derivatives will be done elsewhere.
 Leave Link  702 at Sat Aug 17 22:43:02 2024, MaxMem=   13107200 cpu:       0.0
 (Enter /programs/64bit/g09/g09-gfortran/bin/l703.exe)
 Compute integral first derivatives, UseDBF=F ICtDFT=           0.
 Integral derivatives from FoFDir, PRISM(SPDF).
 Calling FoFJK, ICntrl=      2127 FMM=F ISym2X=1 I1Cent= 0 IOpClX= 0 NMat=1 NMatS=1 NMatT=0.
 FoFCou: FMM=F IPFlag=           0 FMFlag=      100000 FMFlg1=         800
         NFxFlg=           0 DoJE=F BraDBF=F KetDBF=F FulRan=T
         Omega=  0.000000  0.000000  1.000000  0.000000  0.000000 ICntrl=    2127 IOpCl=  0
         NMat0=    1 NMatS0=    1 NMatT0=    0 NMatD0=    1 NMtDS0=    0 NMtDT0=    0
         I1Cent=           0 NGrid=           0.
 Petite list used in FoFCou.
 Leave Link  703 at Sat Aug 17 22:43:02 2024, MaxMem=   13107200 cpu:       0.2
 (Enter /programs/64bit/g09/g09-gfortran/bin/l716.exe)
 Dipole        = 1.35585468D-31-1.80555932D-35 0.00000000D+00
 ***** Axes restored to original set *****
 -------------------------------------------------------------------
 Center     Atomic                   Forces (Hartrees/Bohr)
 Number     Number              X              Y              Z
 -------------------------------------------------------------------
      1        1           0.000000000    0.000000000   -0.000080622
      2        1          -0.000000000   -0.000000000    0.000080622
 -------------------------------------------------------------------
 Cartesian Forces:  Max     0.000080622 RMS     0.000046547
 Leave Link  716 at Sat Aug 17 22:43:02 2024, MaxMem=   13107200 cpu:       0.0
 (Enter /programs/64bit/g09/g09-gfortran/bin/l103.exe)

 GradGradGradGradGradGradGradGradGradGradGradGradGradGradGradGradGradGrad
 Berny optimization.
 Using GEDIIS/GDIIS optimizer.
 Internal  Forces:  Max     0.000080622 RMS     0.000080622
 Search for a local minimum.
 Step number   2 out of a maximum of   20
 All quantities printed in internal units (Hartrees-Bohrs-Radians)
 RMS Force = .80622D-04 SwitMx=.10000D-02 MixMth= 2
 Mixed Optimization -- En-DIIS/RFO-DIIS
 Update second derivatives using D2CorX and points    1    2
 DE= -5.65D-06 DEPred=-5.45D-06 R= 1.04D+00
 SS=  1.41D+00  RLast= 5.28D-03 DXNew= 5.0454D-01 1.5835D-02
 Trust test= 1.04D+00 RLast= 5.28D-03 DXMaxT set to 3.00D-01
 The second derivative matrix:
                          R1
           R1           0.37613
 Use linear search instead of GDIIS.
     Eigenvalues ---    0.37613
 RFO step:  Lambda= 0.00000000D+00 EMin= 3.76130720D-01
 Quartic linear search produced a step of  0.04099.
 Iteration  1 RMS(Cart)=  0.00015299 RMS(Int)=  0.00000000
 Iteration  2 RMS(Cart)=  0.00000000 RMS(Int)=  0.00000000
 ClnCor:  largest displacement from symmetrization is 6.62D-21 for atom     1.
 Variable       Old X    -DE/DX   Delta X   Delta X   Delta X     New X
                                 (Linear)    (Quad)   (Total)
    R1        1.40368   0.00008   0.00022  -0.00000   0.00022   1.40389
         Item               Value     Threshold  Converged?
 Maximum Force            0.000081     0.000450     YES
 RMS     Force            0.000081     0.000300     YES
 Maximum Displacement     0.000108     0.001800     YES
 RMS     Displacement     0.000153     0.001200     YES
 Predicted change in Energy=-8.639793D-09
 Optimization completed.
    -- Stationary point found.
                           ----------------------------
                           !   Optimized Parameters   !
                           ! (Angstroms and Degrees)  !
 --------------------------                            --------------------------
 ! Name  Definition              Value          Derivative Info.                !
 --------------------------------------------------------------------------------
 ! R1    R(1,2)                  0.7428         -DE/DX =    0.0001              !
 --------------------------------------------------------------------------------
 GradGradGradGradGradGradGradGradGradGradGradGradGradGradGradGradGradGrad

 Largest change from initial coordinates is atom    2       0.001 Angstoms.
 Leave Link  103 at Sat Aug 17 22:43:02 2024, MaxMem=   13107200 cpu:       0.0
 (Enter /programs/64bit/g09/g09-gfortran/bin/l202.exe)
                          Input orientation:                          
 ---------------------------------------------------------------------
 Center     Atomic      Atomic             Coordinates (Angstroms)
 Number     Number       Type             X           Y           Z
 ---------------------------------------------------------------------
      1          1           0        0.000000    0.000000   -0.001397
      2          1           0        0.000000    0.000000    0.741397
 ---------------------------------------------------------------------
 Stoichiometry    H2
 Framework group  D*H[C*(H.H)]
 Deg. of freedom     1
 Full point group                 D*H     NOp   8
 Largest Abelian subgroup         D2H     NOp   8
 Largest concise Abelian subgroup C2      NOp   2
                         Standard orientation:                         
 ---------------------------------------------------------------------
 Center     Atomic      Atomic             Coordinates (Angstroms)
 Number     Number       Type             X           Y           Z
 ---------------------------------------------------------------------
      1          1           0        0.000000    0.000000    0.371397
      2          1           0        0.000000    0.000000   -0.371397
 ---------------------------------------------------------------------
 Rotational constants (GHZ):      0.0000000   1817.7170577   1817.7170577
 Leave Link  202 at Sat Aug 17 22:43:02 2024, MaxMem=   13107200 cpu:       0.0
 (Enter /programs/64bit/g09/g09-gfortran/bin/l601.exe)
 Copying SCF densities to generalized density rwf, IOpCl= 0 IROHF=0.

 **********************************************************************

            Population analysis using the SCF density.

 **********************************************************************

 Orbital symmetries:
       Occupied  (SGG)
       Virtual   (SGU) (SGG) (SGU) (PIU) (PIU) (SGG) (PIG) (PIG)
                 (SGU) (SGU) (SGG) (DLTG) (DLTG) (PIU) (PIU) (SGG)
                 (PIG) (PIG) (DLTU) (DLTU) (PIU) (PIU) (SGU) (PIG)
                 (PIG) (SGG) (SGU)
 The electronic state is 1-SGG.
 Alpha  occ. eigenvalues --   -0.43411
 Alpha virt. eigenvalues --    0.05813   0.19574   0.47064   0.51161   0.51161
 Alpha virt. eigenvalues --    0.91100   0.93723   0.93723   1.36724   2.03565
 Alpha virt. eigenvalues --    2.09340   2.88259   2.88259   3.07981   3.07981
 Alpha virt. eigenvalues --    3.35644   3.60077   3.60077   3.79330   3.79330
 Alpha virt. eigenvalues --    3.80777   3.80777   4.34603   5.38699   5.38699
 Alpha virt. eigenvalues --    5.44858   6.52292
     Molecular Orbital Coefficients:
                           1         2         3         4         5
                       (SGG)--O  (SGU)--V  (SGG)--V  (SGU)--V  (PIU)--V
     Eigenvalues --    -0.43411   0.05813   0.19574   0.47064   0.51161
   1 1   H  1S          0.19815   0.09017  -0.08273  -0.15183   0.00000
   2        2S          0.27074  -0.08207  -0.69547  -2.08379   0.00000
   3        3S          0.14339   2.04686   0.84169   2.43954   0.00000
   4        4PX         0.00000   0.00000   0.00000   0.00000  -0.04673
   5        4PY         0.00000   0.00000   0.00000   0.00000   0.00000
   6        4PZ        -0.01142   0.02674   0.01709   0.06448   0.00000
   7        5PX         0.00000   0.00000   0.00000   0.00000   0.57193
   8        5PY         0.00000   0.00000   0.00000   0.00000   0.00000
   9        5PZ        -0.01101   0.08984  -0.03281   0.16684   0.00000
  10        6D 0        0.00034  -0.01204   0.00552  -0.05653   0.00000
  11        6D+1        0.00000   0.00000   0.00000   0.00000   0.00654
  12        6D-1        0.00000   0.00000   0.00000   0.00000   0.00000
  13        6D+2        0.00000   0.00000  -0.00000   0.00000   0.00000
  14        6D-2        0.00000   0.00000   0.00000   0.00000   0.00000
  15 2   H  1S          0.19815  -0.09017  -0.08273   0.15183   0.00000
  16        2S          0.27074   0.08207  -0.69547   2.08379   0.00000
  17        3S          0.14339  -2.04686   0.84169  -2.43954   0.00000
  18        4PX         0.00000   0.00000   0.00000   0.00000  -0.04673
  19        4PY         0.00000   0.00000   0.00000   0.00000   0.00000
  20        4PZ         0.01142   0.02674  -0.01709   0.06448   0.00000
  21        5PX         0.00000   0.00000   0.00000   0.00000   0.57193
  22        5PY         0.00000   0.00000   0.00000   0.00000   0.00000
  23        5PZ         0.01101   0.08984   0.03281   0.16684   0.00000
  24        6D 0        0.00034   0.01204   0.00552   0.05653   0.00000
  25        6D+1        0.00000   0.00000   0.00000   0.00000  -0.00654
  26        6D-1        0.00000   0.00000   0.00000   0.00000   0.00000
  27        6D+2        0.00000  -0.00000  -0.00000  -0.00000   0.00000
  28        6D-2        0.00000   0.00000   0.00000   0.00000   0.00000
                           6         7         8         9        10
                       (PIU)--V  (SGG)--V  (PIG)--V  (PIG)--V  (SGU)--V
     Eigenvalues --     0.51161   0.91100   0.93723   0.93723   1.36724
   1 1   H  1S          0.00000   0.00483   0.00000   0.00000   0.02625
   2        2S          0.00000   0.67786   0.00000   0.00000  12.86652
   3        3S          0.00000  -0.37361   0.00000   0.00000  -0.30794
   4        4PX         0.00000   0.00000  -0.05593   0.00000   0.00000
   5        4PY        -0.04673   0.00000   0.00000  -0.05593   0.00000
   6        4PZ         0.00000  -0.08607   0.00000   0.00000  -0.12744
   7        5PX         0.00000   0.00000   1.39614   0.00000   0.00000
   8        5PY         0.57193   0.00000   0.00000   1.39614   0.00000
   9        5PZ         0.00000   1.04188   0.00000   0.00000  -6.13054
  10        6D 0        0.00000  -0.05927   0.00000   0.00000   0.27636
  11        6D+1        0.00000   0.00000  -0.09785   0.00000   0.00000
  12        6D-1        0.00654   0.00000   0.00000  -0.09785   0.00000
  13        6D+2        0.00000  -0.00000   0.00000   0.00000  -0.00000
  14        6D-2        0.00000   0.00000   0.00000   0.00000   0.00000
  15 2   H  1S          0.00000   0.00483   0.00000   0.00000  -0.02625
  16        2S          0.00000   0.67786   0.00000   0.00000 -12.86652
  17        3S          0.00000  -0.37361   0.00000   0.00000   0.30794
  18        4PX         0.00000   0.00000   0.05593   0.00000   0.00000
  19        4PY        -0.04673   0.00000   0.00000   0.05593   0.00000
  20        4PZ         0.00000   0.08607   0.00000   0.00000  -0.12744
  21        5PX         0.00000   0.00000  -1.39614   0.00000   0.00000
  22        5PY         0.57193   0.00000   0.00000  -1.39614   0.00000
  23        5PZ         0.00000  -1.04188   0.00000   0.00000  -6.13054
  24        6D 0        0.00000  -0.05927   0.00000   0.00000  -0.27636
  25        6D+1        0.00000   0.00000  -0.09785   0.00000   0.00000
  26        6D-1       -0.00654   0.00000   0.00000  -0.09785   0.00000
  27        6D+2        0.00000  -0.00000   0.00000   0.00000   0.00000
  28        6D-2        0.00000   0.00000   0.00000   0.00000   0.00000
                          11        12        13        14        15
                       (SGU)--V  (SGG)--V  (DLTG)--  (DLTG)--  (PIU)--V
     Eigenvalues --     2.03565   2.09340   2.88259   2.88259   3.07981
   1 1   H  1S         -0.66335  -0.95612   0.00000   0.00000   0.00000
   2        2S          3.43835   1.01275   0.00000  -0.00000   0.00000
   3        3S         -1.40854  -0.40566   0.00000   0.00000   0.00000
   4        4PX         0.00000   0.00000   0.00000   0.00000   0.00000
   5        4PY         0.00000   0.00000   0.00000   0.00000   0.59387
   6        4PZ        -0.51952   0.10670   0.00000  -0.00000   0.00000
   7        5PX         0.00000   0.00000   0.00000   0.00000   0.00000
   8        5PY         0.00000   0.00000   0.00000   0.00000  -0.36746
   9        5PZ        -0.66348  -0.24361   0.00000   0.00000   0.00000
  10        6D 0        0.39999  -0.10930   0.00000  -0.00000   0.00000
  11        6D+1        0.00000   0.00000   0.00000   0.00000   0.00000
  12        6D-1        0.00000   0.00000   0.00000   0.00000  -0.31785
  13        6D+2       -0.00000   0.00000   0.00000   0.60791   0.00000
  14        6D-2        0.00000   0.00000   0.60791   0.00000   0.00000
  15 2   H  1S          0.66335  -0.95612   0.00000   0.00000   0.00000
  16        2S         -3.43835   1.01275   0.00000  -0.00000   0.00000
  17        3S          1.40854  -0.40566   0.00000   0.00000   0.00000
  18        4PX         0.00000   0.00000   0.00000   0.00000   0.00000
  19        4PY         0.00000   0.00000   0.00000   0.00000   0.59387
  20        4PZ        -0.51952  -0.10670   0.00000   0.00000   0.00000
  21        5PX         0.00000   0.00000   0.00000   0.00000   0.00000
  22        5PY         0.00000   0.00000   0.00000   0.00000  -0.36746
  23        5PZ        -0.66348   0.24361   0.00000  -0.00000   0.00000
  24        6D 0       -0.39999  -0.10930   0.00000  -0.00000   0.00000
  25        6D+1        0.00000   0.00000   0.00000   0.00000   0.00000
  26        6D-1        0.00000   0.00000   0.00000   0.00000   0.31785
  27        6D+2        0.00000   0.00000   0.00000   0.60791   0.00000
  28        6D-2        0.00000   0.00000   0.60791   0.00000   0.00000
                          16        17        18        19        20
                       (PIU)--V  (SGG)--V  (PIG)--V  (PIG)--V  (DLTU)--
     Eigenvalues --     3.07981   3.35644   3.60077   3.60077   3.79330
   1 1   H  1S          0.00000   0.04726   0.00000   0.00000   0.00000
   2        2S          0.00000   0.30035   0.00000   0.00000   0.00000
   3        3S          0.00000  -0.16497   0.00000   0.00000   0.00000
   4        4PX         0.59387   0.00000  -0.53406   0.00000   0.00000
   5        4PY         0.00000   0.00000   0.00000  -0.53406   0.00000
   6        4PZ         0.00000  -0.82441   0.00000   0.00000   0.00000
   7        5PX        -0.36746   0.00000   1.14204   0.00000   0.00000
   8        5PY         0.00000   0.00000   0.00000   1.14204   0.00000
   9        5PZ         0.00000   0.87081   0.00000   0.00000   0.00000
  10        6D 0        0.00000  -0.39815   0.00000   0.00000   0.00000
  11        6D+1       -0.31785   0.00000  -0.79379   0.00000   0.00000
  12        6D-1        0.00000   0.00000   0.00000  -0.79379   0.00000
  13        6D+2        0.00000   0.00000   0.00000   0.00000   0.00000
  14        6D-2        0.00000   0.00000   0.00000   0.00000   0.87908
  15 2   H  1S          0.00000   0.04726   0.00000   0.00000   0.00000
  16        2S          0.00000   0.30035   0.00000   0.00000   0.00000
  17        3S          0.00000  -0.16497   0.00000   0.00000   0.00000
  18        4PX         0.59387   0.00000   0.53406   0.00000   0.00000
  19        4PY         0.00000   0.00000   0.00000   0.53406   0.00000
  20        4PZ         0.00000   0.82441   0.00000   0.00000   0.00000
  21        5PX        -0.36746   0.00000  -1.14204   0.00000   0.00000
  22        5PY         0.00000   0.00000   0.00000  -1.14204   0.00000
  23        5PZ         0.00000  -0.87081   0.00000   0.00000   0.00000
  24        6D 0        0.00000  -0.39815   0.00000   0.00000   0.00000
  25        6D+1        0.31785   0.00000  -0.79379   0.00000   0.00000
  26        6D-1        0.00000   0.00000   0.00000  -0.79379   0.00000
  27        6D+2        0.00000   0.00000   0.00000   0.00000   0.00000
  28        6D-2        0.00000   0.00000   0.00000   0.00000  -0.87908
                          21        22        23        24        25
                       (DLTU)--  (PIU)--V  (PIU)--V  (SGU)--V  (PIG)--V
     Eigenvalues --     3.79330   3.80777   3.80777   4.34603   5.38699
   1 1   H  1S         -0.00000   0.00000   0.00000   0.68578   0.00000
   2        2S         -0.00000   0.00000   0.00000   7.16075   0.00000
   3        3S         -0.00000   0.00000   0.00000   0.11725   0.00000
   4        4PX         0.00000   0.65236   0.00000   0.00000   0.00000
   5        4PY         0.00000   0.00000   0.65236   0.00000  -1.04817
   6        4PZ        -0.00000   0.00000   0.00000   0.19431   0.00000
   7        5PX         0.00000  -0.24831   0.00000   0.00000   0.00000
   8        5PY         0.00000   0.00000  -0.24831   0.00000  -0.49321
   9        5PZ         0.00000   0.00000   0.00000  -3.77112   0.00000
  10        6D 0       -0.00000   0.00000   0.00000   0.96083   0.00000
  11        6D+1        0.00000   0.56532   0.00000   0.00000   0.00000
  12        6D-1        0.00000   0.00000   0.56532   0.00000   1.37078
  13        6D+2        0.87908   0.00000   0.00000   0.00000   0.00000
  14        6D-2        0.00000   0.00000   0.00000   0.00000   0.00000
  15 2   H  1S          0.00000   0.00000   0.00000  -0.68578   0.00000
  16        2S          0.00000   0.00000   0.00000  -7.16075   0.00000
  17        3S          0.00000   0.00000   0.00000  -0.11725   0.00000
  18        4PX         0.00000   0.65236   0.00000   0.00000   0.00000
  19        4PY         0.00000   0.00000   0.65236   0.00000   1.04817
  20        4PZ        -0.00000   0.00000   0.00000   0.19431   0.00000
  21        5PX         0.00000  -0.24831   0.00000   0.00000   0.00000
  22        5PY         0.00000   0.00000  -0.24831   0.00000   0.49321
  23        5PZ         0.00000   0.00000   0.00000  -3.77112   0.00000
  24        6D 0        0.00000   0.00000   0.00000  -0.96083   0.00000
  25        6D+1        0.00000  -0.56532   0.00000   0.00000   0.00000
  26        6D-1        0.00000   0.00000  -0.56532   0.00000   1.37078
  27        6D+2       -0.87908   0.00000   0.00000  -0.00000   0.00000
  28        6D-2        0.00000   0.00000   0.00000   0.00000   0.00000
                          26        27        28
                       (PIG)--V  (SGG)--V  (SGU)--V
     Eigenvalues --     5.38699   5.44858   6.52292
   1 1   H  1S          0.00000   1.20403   1.53017
   2        2S          0.00000  -0.56455   4.41356
   3        3S          0.00000   0.08894  -0.62240
   4        4PX        -1.04817   0.00000   0.00000
   5        4PY         0.00000   0.00000   0.00000
   6        4PZ         0.00000  -0.05302  -1.97123
   7        5PX        -0.49321   0.00000   0.00000
   8        5PY         0.00000   0.00000   0.00000
   9        5PZ         0.00000   0.72819  -1.69943
  10        6D 0        0.00000  -1.12373   1.03148
  11        6D+1        1.37078   0.00000   0.00000
  12        6D-1        0.00000   0.00000   0.00000
  13        6D+2        0.00000  -0.00000   0.00000
  14        6D-2        0.00000   0.00000   0.00000
  15 2   H  1S          0.00000   1.20403  -1.53017
  16        2S          0.00000  -0.56455  -4.41356
  17        3S          0.00000   0.08894   0.62240
  18        4PX         1.04817   0.00000   0.00000
  19        4PY         0.00000   0.00000   0.00000
  20        4PZ         0.00000   0.05302  -1.97123
  21        5PX         0.49321   0.00000   0.00000
  22        5PY         0.00000   0.00000   0.00000
  23        5PZ         0.00000  -0.72819  -1.69943
[...]
  18        4PX         0.00000   0.00000   0.00000  -0.00000   0.00000
  19        4PY         0.00000   0.00000   0.00000   0.00000  -0.00000
  20        4PZ         0.00184   0.00159   0.00022   0.00000   0.00000
  21        5PX         0.00000   0.00000   0.00000  -0.00000   0.00000
  22        5PY         0.00000   0.00000   0.00000   0.00000  -0.00000
  23        5PZ         0.00247   0.00334   0.00072   0.00000   0.00000
  24        6D 0        0.00006   0.00002   0.00000   0.00000   0.00000
  25        6D+1        0.00000   0.00000   0.00000  -0.00000   0.00000
  26        6D-1        0.00000   0.00000   0.00000   0.00000  -0.00000
  27        6D+2        0.00000   0.00000   0.00000   0.00000   0.00000
  28        6D-2        0.00000   0.00000   0.00000   0.00000   0.00000
                           6         7         8         9        10
   6        4PZ         0.00026
   7        5PX        -0.00000   0.00000
   8        5PY         0.00000   0.00000   0.00000
   9        5PZ         0.00015  -0.00000   0.00000   0.00024
  10        6D 0        0.00000   0.00000   0.00000   0.00000   0.00000
  11        6D+1        0.00000   0.00000   0.00000   0.00000   0.00000
  12        6D-1        0.00000   0.00000   0.00000   0.00000   0.00000
  13        6D+2        0.00000   0.00000   0.00000   0.00000   0.00000
  14        6D-2        0.00000   0.00000   0.00000   0.00000   0.00000
  15 2   H  1S          0.00184   0.00000   0.00000   0.00247   0.00006
  16        2S          0.00159   0.00000   0.00000   0.00334   0.00002
  17        3S          0.00022   0.00000   0.00000   0.00072   0.00000
  18        4PX         0.00000  -0.00000   0.00000   0.00000   0.00000
  19        4PY         0.00000   0.00000  -0.00000   0.00000   0.00000
  20        4PZ         0.00012   0.00000   0.00000   0.00002   0.00000
  21        5PX         0.00000  -0.00000   0.00000   0.00000   0.00000
  22        5PY         0.00000   0.00000  -0.00000   0.00000   0.00000
  23        5PZ         0.00002   0.00000   0.00000  -0.00004  -0.00000
  24        6D 0        0.00000   0.00000   0.00000  -0.00000  -0.00000
  25        6D+1        0.00000  -0.00000   0.00000   0.00000   0.00000
  26        6D-1        0.00000   0.00000  -0.00000   0.00000   0.00000
  27        6D+2        0.00000   0.00000   0.00000   0.00000   0.00000
  28        6D-2        0.00000   0.00000   0.00000   0.00000   0.00000
                          11        12        13        14        15
  11        6D+1        0.00000
  12        6D-1        0.00000   0.00000
  13        6D+2       -0.00000   0.00000  -0.00000
  14        6D-2        0.00000   0.00000   0.00000  -0.00000
  15 2   H  1S          0.00000   0.00000   0.00000   0.00000   0.07853
  16        2S          0.00000   0.00000   0.00000   0.00000   0.07578
  17        3S          0.00000   0.00000   0.00000   0.00000   0.02123
  18        4PX        -0.00000   0.00000  -0.00000   0.00000   0.00000
  19        4PY         0.00000  -0.00000   0.00000   0.00000   0.00000
  20        4PZ         0.00000   0.00000   0.00000   0.00000   0.00000
  21        5PX        -0.00000   0.00000  -0.00000   0.00000   0.00000
  22        5PY         0.00000  -0.00000   0.00000   0.00000   0.00000
  23        5PZ         0.00000   0.00000   0.00000   0.00000   0.00000
  24        6D 0        0.00000   0.00000   0.00000   0.00000   0.00000
  25        6D+1       -0.00000   0.00000  -0.00000   0.00000   0.00000
  26        6D-1        0.00000  -0.00000   0.00000   0.00000   0.00000
  27        6D+2       -0.00000   0.00000  -0.00000   0.00000   0.00000
  28        6D-2        0.00000   0.00000   0.00000  -0.00000   0.00000
                          16        17        18        19        20
  16        2S          0.14660
  17        3S          0.06125   0.04112
  18        4PX         0.00000   0.00000   0.00000
  19        4PY         0.00000   0.00000   0.00000   0.00000
  20        4PZ         0.00000   0.00000   0.00000   0.00000   0.00026
  21        5PX         0.00000   0.00000   0.00000   0.00000   0.00000
  22        5PY         0.00000   0.00000   0.00000   0.00000   0.00000
  23        5PZ         0.00000   0.00000   0.00000   0.00000   0.00015
  24        6D 0        0.00000   0.00000   0.00000   0.00000   0.00000
  25        6D+1        0.00000   0.00000   0.00000   0.00000   0.00000
  26        6D-1        0.00000   0.00000   0.00000   0.00000   0.00000
  27        6D+2        0.00000   0.00000   0.00000   0.00000   0.00000
  28        6D-2        0.00000   0.00000   0.00000   0.00000   0.00000
                          21        22        23        24        25
  21        5PX         0.00000
  22        5PY         0.00000   0.00000
  23        5PZ         0.00000   0.00000   0.00024
  24        6D 0        0.00000   0.00000   0.00000   0.00000
  25        6D+1        0.00000   0.00000   0.00000   0.00000   0.00000
  26        6D-1        0.00000   0.00000   0.00000   0.00000   0.00000
  27        6D+2        0.00000   0.00000   0.00000   0.00000   0.00000
  28        6D-2        0.00000   0.00000   0.00000   0.00000   0.00000
                          26        27        28
  26        6D-1        0.00000
  27        6D+2        0.00000  -0.00000
  28        6D-2        0.00000   0.00000  -0.00000
     Gross orbital populations:
                           1
   1 1   H  1S          0.26404
   2        2S          0.49294
   3        3S          0.23183
   4        4PX         0.00000
   5        4PY         0.00000
   6        4PZ         0.00420
   7        5PX         0.00000
   8        5PY         0.00000
   9        5PZ         0.00690
  10        6D 0        0.00009
  11        6D+1        0.00000
  12        6D-1        0.00000
  13        6D+2       -0.00000
  14        6D-2        0.00000
  15 2   H  1S          0.26404
  16        2S          0.49294
  17        3S          0.23183
  18        4PX         0.00000
  19        4PY         0.00000
  20        4PZ         0.00420
  21        5PX         0.00000
  22        5PY         0.00000
  23        5PZ         0.00690
  24        6D 0        0.00009
  25        6D+1       -0.00000
  26        6D-1       -0.00000
  27        6D+2       -0.00000
  28        6D-2        0.00000
          Condensed to atoms (all electrons):
              1          2
     1  H    0.583572   0.416428
     2  H    0.416428   0.583572
 Mulliken atomic charges:
              1
     1  H   -0.000000
     2  H   -0.000000
 Sum of Mulliken atomic charges =  -0.00000
 Mulliken charges with hydrogens summed into heavy atoms:
              1
 Sum of Mulliken charges with hydrogens summed into heavy atoms =  -0.00000
 APT atomic charges:
              1
     1  H   -0.000000
     2  H   -0.000000
 Sum of APT charges=  -0.00000
 APT Atomic charges with hydrogens summed into heavy atoms:
              1
     1  H   -0.000000
     2  H   -0.000000
 Sum of APT charges=  -0.00000
 Electronic spatial extent (au):  <R**2>=              5.2610
 Charge=              0.0000 electrons
 Dipole moment (field-independent basis, Debye):
    X=             -0.0000    Y=             -0.0000    Z=             -0.0000  Tot=              0.0000
 Quadrupole moment (field-independent basis, Debye-Ang):
   XX=             -2.1062   YY=             -2.1062   ZZ=             -1.5388
   XY=             -0.0000   XZ=             -0.0000   YZ=              0.0000
 Traceless Quadrupole moment (field-independent basis, Debye-Ang):
   XX=             -0.1891   YY=             -0.1891   ZZ=              0.3782
   XY=             -0.0000   XZ=             -0.0000   YZ=              0.0000
 Octapole moment (field-independent basis, Debye-Ang**2):
  XXX=             -0.0000  YYY=              0.0000  ZZZ=             -0.0000  XYY=             -0.0000
  XXY=              0.0000  XXZ=             -0.0000  XZZ=             -0.0000  YZZ=              0.0000
  YYZ=             -0.0000  XYZ=              0.0000
 Hexadecapole moment (field-independent basis, Debye-Ang**3):
 XXXX=             -2.1886 YYYY=             -2.1886 ZZZZ=             -3.0371 XXXY=             -0.0000
 XXXZ=              0.0000 YYYX=             -0.0000 YYYZ=              0.0000 ZZZX=              0.0000
 ZZZY=              0.0000 XXYY=             -0.7295 XXZZ=             -0.8877 YYZZ=             -0.8877
 XXYZ=              0.0000 YYXZ=              0.0000 ZZXY=             -0.0000
 N-N= 7.124153168208D-01 E-N=-3.640262514380D+00  KE= 1.138618613334D+00
 Symmetry AG   KE= 1.138618613334D+00
 Symmetry B1G  KE= 5.283175622278D-67
 Symmetry B2G  KE= 6.466812746495D-33
 Symmetry B3G  KE= 6.466812746495D-33
 Symmetry AU   KE= 1.972733951045D-69
 Symmetry B1U  KE= 5.541930867932D-30
 Symmetry B2U  KE= 1.498725361651D-34
 Symmetry B3U  KE= 1.498725361651D-34
 Orbital energies and kinetic energies (alpha):
                                 1                 2
   1 (SGG)--O                 -0.434107          0.569309
   2 (SGU)--V                  0.058128          0.336323
   3 (SGG)--V                  0.195740          0.511801
   4 (SGU)--V                  0.470638          1.038403
   5 (PIU)--V                  0.511610          0.870666
   6 (PIU)--V                  0.511610          0.870666
   7 (SGG)--V                  0.911002          1.254360
   8 (PIG)--V                  0.937230          1.213114
   9 (PIG)--V                  0.937230          1.213114
  10 (SGU)--V                  1.367236          1.576325
  11 (SGU)--V                  2.035655          3.283175
  12 (SGG)--V                  2.093401          3.403788
  13 (DLTG)--V                 2.882588          3.412340
  14 (DLTG)--V                 2.882588          3.412340
  15 (PIU)--V                  3.079813          3.893694
  16 (PIU)--V                  3.079813          3.893694
  17 (SGG)--V                  3.356441          4.225886
  18 (PIG)--V                  3.600770          4.283544
  19 (PIG)--V                  3.600770          4.283544
  20 (DLTU)--V                 3.793303          4.299997
  21 (DLTU)--V                 3.793303          4.299997
  22 (PIU)--V                  3.807775          4.447718
  23 (PIU)--V                  3.807775          4.447718
  24 (SGU)--V                  4.346031          5.076430
  25 (PIG)--V                  5.386988          6.122337
  26 (PIG)--V                  5.386988          6.122337
  27 (SGG)--V                  5.448579          6.448058
  28 (SGU)--V                  6.522920          8.370943
 Total kinetic energy from orbitals= 1.138618613334D+00
  Exact polarizability:   2.611   0.000   2.611   0.000  -0.000   6.858
 Approx polarizability:   2.784  -0.000   2.784  -0.000  -0.000   8.147
 No NMR shielding tensors so no spin-rotation constants.
 Leave Link  601 at Sat Aug 17 22:43:06 2024, MaxMem=   13107200 cpu:       0.1
 (Enter /programs/64bit/g09/g09-gfortran/bin/l701.exe)
 Compute integral second derivatives.
 ... and contract with generalized density number  0.
 Leave Link  701 at Sat Aug 17 22:43:06 2024, MaxMem=   13107200 cpu:       0.2
 (Enter /programs/64bit/g09/g09-gfortran/bin/l702.exe)
 L702 exits ... SP integral derivatives will be done elsewhere.
 Leave Link  702 at Sat Aug 17 22:43:06 2024, MaxMem=   13107200 cpu:       0.0
 (Enter /programs/64bit/g09/g09-gfortran/bin/l703.exe)
 Compute integral second derivatives, UseDBF=F ICtDFT=           0.
 Integral derivatives from FoFDir, PRISM(SPDF).
 Calling FoFJK, ICntrl=    100127 FMM=F ISym2X=1 I1Cent= 0 IOpClX= 0 NMat=1 NMatS=1 NMatT=0.
 FoFCou: FMM=F IPFlag=           0 FMFlag=      100000 FMFlg1=         800
         NFxFlg=           0 DoJE=F BraDBF=F KetDBF=F FulRan=T
         Omega=  0.000000  0.000000  1.000000  0.000000  0.000000 ICntrl=  100127 IOpCl=  0
         NMat0=    1 NMatS0=    1 NMatT0=    0 NMatD0=    1 NMtDS0=    0 NMtDT0=    0
         I1Cent=           0 NGrid=           0.
 Petite list used in FoFCou.
 Leave Link  703 at Sat Aug 17 22:43:07 2024, MaxMem=   13107200 cpu:       0.5
 (Enter /programs/64bit/g09/g09-gfortran/bin/l716.exe)
 Dipole        = 0.00000000D+00-1.80555932D-34-5.34014753D-17
 Polarizability= 2.61112263D+00 3.78206499D-12 2.61112263D+00
                 1.94572946D-11-9.59607422D-12 6.85765911D+00
 Full mass-weighted force constant matrix:
 Low frequencies ---  -56.6734  -56.6734   -0.0003   -0.0003    0.0002 4421.3033
 Diagonal vibrational polarizability:
        0.0000000       0.0000000       0.0000000
 Harmonic frequencies (cm**-1), IR intensities (KM/Mole), Raman scattering
 activities (A**4/AMU), depolarization ratios for plane and unpolarized
 incident light, reduced masses (AMU), force constants (mDyne/A),
 and normal coordinates:
                     1
                    SGG
 Frequencies --  4421.3033
 Red. masses --     1.0078
 Frc consts  --    11.6074
 IR Inten    --     0.0000
  Atom  AN      X      Y      Z
     1   1    -0.00   0.00   0.71
     2   1     0.00   0.00  -0.71

 -------------------
 - Thermochemistry -
 -------------------
 Temperature   298.150 Kelvin.  Pressure   1.00000 Atm.
 Atom     1 has atomic number  1 and mass   1.00783
 Atom     2 has atomic number  1 and mass   1.00783
 Molecular mass:     2.01565 amu.
 Principal axes and moments of inertia in atomic units:
                           1         2         3
     Eigenvalues --    -0.00000   0.99286   0.99286
           X           -0.00000   1.00000  -0.00000
           Y            0.00000   0.00000   1.00000
           Z            1.00000   0.00000  -0.00000
 This molecule is a prolate symmetric top.
 Rotational symmetry number  2.
 Rotational temperature (Kelvin)     87.23656
 Rotational constant (GHZ):        1817.717058
 Zero-point vibrational energy      26445.3 (Joules/Mol)
                                    6.32057 (Kcal/Mol)
 Vibrational temperatures:   6361.26
          (Kelvin)
 
 Zero-point correction=                           0.010072 (Hartree/Particle)
 Thermal correction to Energy=                    0.012433
 Thermal correction to Enthalpy=                  0.013377
 Thermal correction to Gibbs Free Energy=        -0.001415
 Sum of electronic and zero-point Energies=             -1.169926
 Sum of electronic and thermal Energies=                -1.167566
 Sum of electronic and thermal Enthalpies=              -1.166622
 Sum of electronic and thermal Free Energies=           -1.181414
 
                     E (Thermal)             CV                S
                      KCal/Mol        Cal/Mol-Kelvin    Cal/Mol-Kelvin
 Total                    7.802              4.968             31.132
 Electronic               0.000              0.000              0.000
 Translational            0.889              2.981             28.080
 Rotational               0.592              1.987              3.052
 Vibrational              6.321              0.000              0.000
                       Q            Log10(Q)             Ln(Q)
 Total Bot       0.447486D+01          0.650780          1.498475
 Total V=0       0.192214D+06          5.283784         12.166363
 Vib (Bot)       0.232807D-04         -4.633005        -10.667888
 Vib (V=0)       0.100000D+01          0.000000          0.000000
 Electronic      0.100000D+01          0.000000          0.000000
 Translational   0.112481D+06          5.051078         11.630537
 Rotational      0.170886D+01          0.232706          0.535826
 ***** Axes restored to original set *****
 -------------------------------------------------------------------
 Center     Atomic                   Forces (Hartrees/Bohr)
 Number     Number              X              Y              Z
 -------------------------------------------------------------------
      1        1           0.000000000   -0.000000000   -0.000080623
      2        1          -0.000000000    0.000000000    0.000080623
 -------------------------------------------------------------------
 Cartesian Forces:  Max     0.000080623 RMS     0.000046547
 Force constants in Cartesian coordinates: 
                1             2             3             4             5 
      1 -0.612500D-04
      2  0.000000D+00 -0.612500D-04
      3  0.000000D+00  0.000000D+00  0.372775D+00
      4  0.612500D-04  0.000000D+00  0.000000D+00 -0.612500D-04
      5  0.000000D+00  0.612500D-04  0.000000D+00  0.000000D+00 -0.612500D-04
      6  0.000000D+00  0.000000D+00 -0.372775D+00  0.000000D+00  0.000000D+00
                6 
      6  0.372775D+00
 Force constants in internal coordinates: 
                1 
      1  0.372775D+00
 Leave Link  716 at Sat Aug 17 22:43:07 2024, MaxMem=   13107200 cpu:       0.0
 (Enter /programs/64bit/g09/g09-gfortran/bin/l103.exe)

 GradGradGradGradGradGradGradGradGradGradGradGradGradGradGradGradGradGrad
 Berny optimization.
 Internal  Forces:  Max     0.000080623 RMS     0.000080623
 Search for a local minimum.
 Step number   1 out of a maximum of    2
 All quantities printed in internal units (Hartrees-Bohrs-Radians)
 Second derivative matrix not updated -- analytic derivatives used.
 The second derivative matrix:
                          R1
           R1           0.37278
     Eigenvalues ---    0.37278
 Angle between quadratic step and forces=   0.00 degrees.
 Linear search not attempted -- first point.
 Iteration  1 RMS(Cart)=  0.00015293 RMS(Int)=  0.00000000
 Iteration  2 RMS(Cart)=  0.00000000 RMS(Int)=  0.00000000
 ClnCor:  largest displacement from symmetrization is 2.22D-16 for atom     2.
 Variable       Old X    -DE/DX   Delta X   Delta X   Delta X     New X
                                 (Linear)    (Quad)   (Total)
    R1        1.40368   0.00008   0.00000   0.00022   0.00022   1.40389
         Item               Value     Threshold  Converged?
 Maximum Force            0.000081     0.000450     YES
 RMS     Force            0.000081     0.000300     YES
 Maximum Displacement     0.000108     0.001800     YES
 RMS     Displacement     0.000153     0.001200     YES
 Predicted change in Energy=-8.718391D-09
 Optimization completed.
    -- Stationary point found.
                           ----------------------------
                           !   Optimized Parameters   !
                           ! (Angstroms and Degrees)  !
 --------------------------                            --------------------------
 ! Name  Definition              Value          Derivative Info.                !
 --------------------------------------------------------------------------------
 ! R1    R(1,2)                  0.7428         -DE/DX =    0.0001              !
 --------------------------------------------------------------------------------
 GradGradGradGradGradGradGradGradGradGradGradGradGradGradGradGradGradGrad

 Leave Link  103 at Sat Aug 17 22:43:07 2024, MaxMem=   13107200 cpu:       0.0
 (Enter /programs/64bit/g09/g09-gfortran/bin/l9999.exe)
 1\1\GINC-MOLMOD\Freq\RB3LYP\CC-pVTZ\H2\OSPITE\17-Aug-2024\0\\#P Geom=A
 llCheck Guess=TCheck SCRF=Check GenChk RB3LYP/CC-pVTZ Freq\\hydogen (m
 olecule) with cc-pVTZ basis set\\0,1\H,0.,0.,-0.0013965689\H,0.,0.,0.7
 413965689\\Version=EM64L-G09RevA.02\State=1-SGG\HF=-1.1799987\RMSD=7.3
 12e-12\RMSF=4.655e-05\ZeroPoint=0.0100725\Thermal=0.0124329\Dipole=0.,
 0.,0.\DipoleDeriv=0.,0.,0.,0.,0.,0.,0.,0.,0.,0.,0.,0.,0.,0.,0.,0.,0.,0
 .\Polar=2.6111226,0.,2.6111226,0.,0.,6.8576591\PG=D*H [C*(H1.H1)]\NIma
 g=0\\-0.00006125,0.,-0.00006125,0.,0.,0.37277537,0.00006125,0.,0.,-0.0
 0006125,0.,0.00006125,0.,0.,-0.00006125,0.,0.,-0.37277537,0.,0.,0.3727
 7537\\0.,0.,0.00008062,0.,0.,-0.00008062\\\@


 A SUCCESSFUL PURSUIT OF SCIENCE MAKES A MAN THE
 BENEFACTOR OF ALL MANKIND OF EVERY AGE.
   --  JOSEPH PRIESTLEY, "EXPERIMENTS AND
 OBSERVATIONS ON DIFFERENT KINDS OF AIR", 1774
 Job cpu time:  0 days  0 hours  0 minutes  3.7 seconds.
 File lengths (MBytes):  RWF=      5 Int=      0 D2E=      0 Chk=      1 Scr=      1
 Normal termination of Gaussian 09 at Sat Aug 17 22:43:07 2024.
