 Entering Gaussian System, Link 0=/programs/64bit/g09/g09-gfortran/bin/g09
 Input=h2_cc-pVQZ.com
 Output=h2_cc-pVQZ.log
 Initial command:
 /programs/64bit/g09/g09-gfortran/bin/l1.exe /home/ospite/Desktop/MMfP/Project6/H2/g09/DFT/B3LYP/Gau-8126.inp -scrdir=/home/ospite/Desktop/MMfP/Project6/H2/g09/DFT/B3LYP/
 Entering Link 1 = /programs/64bit/g09/g09-gfortran/bin/l1.exe PID=      8129.
  
 Copyright (c) 1988,1990,1992,1993,1995,1998,2003,2009, Gaussian, Inc.
                  All Rights Reserved.
  
 This is part of the Gaussian(R) 09 program.  It is based on
 the Gaussian(R) 03 system (copyright 2003, Gaussian, Inc.),
 the Gaussian(R) 98 system (copyright 1998, Gaussian, Inc.),
 the Gaussian(R) 94 system (copyright 1995, Gaussian, Inc.),
 the Gaussian 92(TM) system (copyright 1992, Gaussian, Inc.),
 the Gaussian 90(TM) system (copyright 1990, Gaussian, Inc.),
 the Gaussian 88(TM) system (copyright 1988, Gaussian, Inc.),
 the Gaussian 86(TM) system (copyright 1986, Carnegie Mellon
 University), and the Gaussian 82(TM) system (copyright 1983,
 Carnegie Mellon University). Gaussian is a federally registered
 trademark of Gaussian, Inc.
  
 This software contains proprietary and confidential information,
 including trade secrets, belonging to Gaussian, Inc.
  
 This software is provided under written license and may be
 used, copied, transmitted, or stored only in accord with that
 written license.
  
 The following legend is applicable only to US Government
 contracts under FAR:
  
                    RESTRICTED RIGHTS LEGEND
  
 Use, reproduction and disclosure by the US Government is
 subject to restrictions as set forth in subparagraphs (a)
 and (c) of the Commercial Computer Software - Restricted
 Rights clause in FAR 52.227-19.
  
 Gaussian, Inc.
 340 Quinnipiac St., Bldg. 40, Wallingford CT 06492
  
  
 ---------------------------------------------------------------
 Warning -- This program may not be used in any manner that
 competes with the business of Gaussian, Inc. or will provide
 assistance to any competitor of Gaussian, Inc.  The licensee
 of this program is prohibited from giving any competitor of
 Gaussian, Inc. access to this program.  By using this program,
 the user acknowledges that Gaussian, Inc. is engaged in the
 business of creating and licensing software in the field of
 computational chemistry and represents and warrants to the
 licensee that it is not a competitor of Gaussian, Inc. and that
 it will not use this program in any manner prohibited above.
 ---------------------------------------------------------------
  

 Cite this work as:
 Gaussian 09, Revision A.02,
 M. J. Frisch, G. W. Trucks, H. B. Schlegel, G. E. Scuseria, 
 M. A. Robb, J. R. Cheeseman, G. Scalmani, V. Barone, B. Mennucci, 
 G. A. Petersson, H. Nakatsuji, M. Caricato, X. Li, H. P. Hratchian, 
 A. F. Izmaylov, J. Bloino, G. Zheng, J. L. Sonnenberg, M. Hada, 
 M. Ehara, K. Toyota, R. Fukuda, J. Hasegawa, M. Ishida, T. Nakajima, 
 Y. Honda, O. Kitao, H. Nakai, T. Vreven, J. A. Montgomery, Jr., 
 J. E. Peralta, F. Ogliaro, M. Bearpark, J. J. Heyd, E. Brothers, 
 K. N. Kudin, V. N. Staroverov, R. Kobayashi, J. Normand, 
 K. Raghavachari, A. Rendell, J. C. Burant, S. S. Iyengar, J. Tomasi, 
 M. Cossi, N. Rega, J. M. Millam, M. Klene, J. E. Knox, J. B. Cross, 
 V. Bakken, C. Adamo, J. Jaramillo, R. Gomperts, R. E. Stratmann, 
 O. Yazyev, A. J. Austin, R. Cammi, C. Pomelli, J. W. Ochterski, 
 R. L. Martin, K. Morokuma, V. G. Zakrzewski, G. A. Voth, 
 P. Salvador, J. J. Dannenberg, S. Dapprich, A. D. Daniels, 
 O. Farkas, J. B. Foresman, J. V. Ortiz, J. Cioslowski, 
 and D. J. Fox, Gaussian, Inc., Wallingford CT, 2009.
 
 ******************************************
 Gaussian 09:  EM64L-G09RevA.02 11-Jun-2009
                18-Aug-2024 
 ******************************************
 %mem=100MB
 ------------------------------------------
 #p b3lyp/cc-pVQZ opt freq pop=full gfinput
 ------------------------------------------
 1/14=-1,18=20,19=15,26=3,38=1/1,3;
 2/9=110,12=2,17=6,18=5,40=1/2;
 3/5=16,6=2,11=2,16=1,24=10,25=1,30=1,71=1,74=-5/1,2,3;
 4//1;
 5/5=2,38=5/2;
 6/7=3,28=1/1;
 7//1,2,3,16;
 1/14=-1,18=20,19=15/3(2);
 2/9=110/2;
 99//99;
 2/9=110/2;
 3/5=16,6=2,11=2,16=1,25=1,30=1,71=1,74=-5/1,2,3;
 4/5=5,16=3/1;
 5/5=2,38=5/2;
 7//1,2,3,16;
 1/14=-1,18=20,19=15/3(-5);
 2/9=110/2;
 6/7=3,19=2,28=1/1;
 99/9=1/99;
 Leave Link    1 at Sun Aug 18 15:12:34 2024, MaxMem=   13107200 cpu:       0.1
 (Enter /programs/64bit/g09/g09-gfortran/bin/l101.exe)
 -----------------------------------------
 hydogen (molecule) with cc-pVQZ basis set
 -----------------------------------------
 Symbolic Z-matrix:
 Charge =  0 Multiplicity = 1
 H1
 H2                   1    d
       Variables:
  d                     0.74                     
 
 NAtoms=      2 NQM=      2 NQMF=      0 NMic=      0 NMicF=      0 NTot=      2.
                    Isotopes and Nuclear Properties:
 (Nuclear quadrupole moments (NQMom) in fm**2, nuclear magnetic moments (NMagM)
  in nuclear magnetons)

  Atom         1           2
 IAtWgt=           1           1
 AtmWgt=   1.0078250   1.0078250
 NucSpn=           1           1
 AtZEff=   0.0000000   0.0000000
 NQMom=    0.0000000   0.0000000
 NMagM=    2.7928460   2.7928460
 Leave Link  101 at Sun Aug 18 15:12:34 2024, MaxMem=   13107200 cpu:       0.1
 (Enter /programs/64bit/g09/g09-gfortran/bin/l103.exe)

 GradGradGradGradGradGradGradGradGradGradGradGradGradGradGradGradGradGrad
 Berny optimization.
 Initialization pass.
                           ----------------------------
                           !    Initial Parameters    !
                           ! (Angstroms and Degrees)  !
 --------------------------                            --------------------------
 ! Name  Definition              Value          Derivative Info.                !
 --------------------------------------------------------------------------------
 ! R1    R(1,2)                  0.74           estimate D2E/DX2                !
 --------------------------------------------------------------------------------
 Trust Radius=3.00D-01 FncErr=1.00D-07 GrdErr=1.00D-06
 Number of steps in this run=  20 maximum allowed number of steps= 100.
 GradGradGradGradGradGradGradGradGradGradGradGradGradGradGradGradGradGrad

 Leave Link  103 at Sun Aug 18 15:12:34 2024, MaxMem=   13107200 cpu:       0.0
 (Enter /programs/64bit/g09/g09-gfortran/bin/l202.exe)
                          Input orientation:                          
 ---------------------------------------------------------------------
 Center     Atomic      Atomic             Coordinates (Angstroms)
 Number     Number       Type             X           Y           Z
 ---------------------------------------------------------------------
      1          1           0        0.000000    0.000000    0.000000
      2          1           0        0.000000    0.000000    0.740000
 ---------------------------------------------------------------------
 Stoichiometry    H2
 Framework group  D*H[C*(H.H)]
 Deg. of freedom     1
 Full point group                 D*H     NOp   8
 Largest Abelian subgroup         D2H     NOp   8
 Largest concise Abelian subgroup C2      NOp   2
                         Standard orientation:                         
 ---------------------------------------------------------------------
 Center     Atomic      Atomic             Coordinates (Angstroms)
 Number     Number       Type             X           Y           Z
 ---------------------------------------------------------------------
      1          1           0        0.000000    0.000000    0.370000
      2          1           0        0.000000    0.000000   -0.370000
 ---------------------------------------------------------------------
 Rotational constants (GHZ):      0.0000000   1831.4649389   1831.4649389
 Leave Link  202 at Sun Aug 18 15:12:34 2024, MaxMem=   13107200 cpu:       0.0
 (Enter /programs/64bit/g09/g09-gfortran/bin/l301.exe)
 Standard basis: CC-pVQZ (5D, 7F)
 Ernie: Thresh=  0.10000D-02 Tol=  0.10000D-05 Strict=F.
 AO basis set in the form of general basis input (Overlap normalization):
      1 0
 S   3 1.00       0.000000000000
      0.8264000000D+02  0.2295075779D-01
      0.1241000000D+02  0.1755401181D+00
      0.2824000000D+01  0.8647035510D+00
 S   1 1.00       0.000000000000
      0.7977000000D+00  0.1000000000D+01
 S   1 1.00       0.000000000000
      0.2581000000D+00  0.1000000000D+01
 S   1 1.00       0.000000000000
      0.8989000000D-01  0.1000000000D+01
 P   1 1.00       0.000000000000
      0.2292000000D+01  0.1000000000D+01
 P   1 1.00       0.000000000000
      0.8380000000D+00  0.1000000000D+01
 P   1 1.00       0.000000000000
      0.2920000000D+00  0.1000000000D+01
 D   1 1.00       0.000000000000
      0.2062000000D+01  0.1000000000D+01
 D   1 1.00       0.000000000000
      0.6620000000D+00  0.1000000000D+01
 F   1 1.00       0.000000000000
      0.1397000000D+01  0.1000000000D+01
 ****
      2 0
 S   3 1.00       0.000000000000
      0.8264000000D+02  0.2295075779D-01
      0.1241000000D+02  0.1755401181D+00
      0.2824000000D+01  0.8647035510D+00
 S   1 1.00       0.000000000000
      0.7977000000D+00  0.1000000000D+01
 S   1 1.00       0.000000000000
      0.2581000000D+00  0.1000000000D+01
 S   1 1.00       0.000000000000
      0.8989000000D-01  0.1000000000D+01
 P   1 1.00       0.000000000000
      0.2292000000D+01  0.1000000000D+01
 P   1 1.00       0.000000000000
      0.8380000000D+00  0.1000000000D+01
 P   1 1.00       0.000000000000
      0.2920000000D+00  0.1000000000D+01
 D   1 1.00       0.000000000000
      0.2062000000D+01  0.1000000000D+01
 D   1 1.00       0.000000000000
      0.6620000000D+00  0.1000000000D+01
 F   1 1.00       0.000000000000
      0.1397000000D+01  0.1000000000D+01
 ****

 There are    13 symmetry adapted basis functions of AG  symmetry.
 There are     3 symmetry adapted basis functions of B1G symmetry.
 There are     7 symmetry adapted basis functions of B2G symmetry.
 There are     7 symmetry adapted basis functions of B3G symmetry.
 There are     3 symmetry adapted basis functions of AU  symmetry.
 There are    13 symmetry adapted basis functions of B1U symmetry.
 There are     7 symmetry adapted basis functions of B2U symmetry.
 There are     7 symmetry adapted basis functions of B3U symmetry.
 Integral buffers will be    131072 words long.
 Raffenetti 2 integral format.
 Two-electron integral symmetry is turned on.
    60 basis functions,    74 primitive gaussians,    70 cartesian basis functions
     1 alpha electrons        1 beta electrons
       nuclear repulsion energy         0.7151043359 Hartrees.
 IExCor=  402 DFT=T Ex+Corr=B3LYP ExCW=0 ScaHFX=  0.200000
 ScaDFX=  0.800000  0.720000  1.000000  0.810000 ScalE2=  1.000000  1.000000
 IRadAn=      0 IRanWt=     -1 IRanGd=            0 ICorTp=0
 NAtoms=    2 NActive=    2 NUniq=    1 SFac= 3.00D+00 NAtFMM=   80 NAOKFM=F Big=F
 Leave Link  301 at Sun Aug 18 15:12:35 2024, MaxMem=   13107200 cpu:       0.1
 (Enter /programs/64bit/g09/g09-gfortran/bin/l302.exe)
 NPDir=0 NMtPBC=     1 NCelOv=     1 NCel=       1 NClECP=     1 NCelD=      1
         NCelK=      1 NCelE2=     1 NClLst=     1 CellRange=     0.0.
 One-electron integrals computed using PRISM.
 One-electron integral symmetry used in STVInt
 NBasis=    60 RedAO= T  NBF=    13     3     7     7     3    13     7     7
 NBsUse=    60 1.00D-06 NBFU=    13     3     7     7     3    13     7     7
 Precomputing XC quadrature grid using
 IXCGrd= 2 IRadAn=           0 IRanWt=          -1 IRanGd=           0 AccXCQ= 1.00D-10.
 NRdTot=     124 NPtTot=       15752 NUsed=       16659 NTot=       16691
 NSgBfM=    70    70    70    70    70 NAtAll=     2     2.
 Leave Link  302 at Sun Aug 18 15:12:35 2024, MaxMem=   13107200 cpu:       0.2
 (Enter /programs/64bit/g09/g09-gfortran/bin/l303.exe)
 DipDrv:  MaxL=1.
 Leave Link  303 at Sun Aug 18 15:12:35 2024, MaxMem=   13107200 cpu:       0.0
 (Enter /programs/64bit/g09/g09-gfortran/bin/l401.exe)
 Harris functional with IExCor=  402 diagonalized for initial guess.
 ExpMin= 8.99D-02 ExpMax= 8.26D+01 ExpMxC= 8.26D+01 IAcc=2 IRadAn=         0 AccDes= 0.00D+00
 HarFok:  IExCor=  402 AccDes= 0.00D+00 IRadAn=         0 IDoV= 1
 ScaDFX=  1.000000  1.000000  1.000000  1.000000
 FoFCou: FMM=F IPFlag=           0 FMFlag=      100000 FMFlg1=           0
         NFxFlg=           0 DoJE=T BraDBF=F KetDBF=T FulRan=T
         Omega=  0.000000  0.000000  1.000000  0.000000  0.000000 ICntrl=     500 IOpCl=  0
         NMat0=    1 NMatS0=    1 NMatT0=    0 NMatD0=    1 NMtDS0=    0 NMtDT0=    0
         I1Cent=           4 NGrid=           0.
 Petite list used in FoFCou.
 Harris En= -1.18728972859808    
 Initial guess orbital symmetries:
       Occupied  (SGG)
       Virtual   (SGU) (SGG) (PIU) (PIU) (SGU) (SGG) (PIG) (PIG)
                 (SGU) (SGG) (SGU) (DLTG) (DLTG) (PIU) (PIU) (SGG)
                 (PIG) (PIG) (PIU) (PIU) (DLTU) (DLTU) (SGU) (SGG)
                 (PIG) (PIG) (SGU) (SGG) (PHIU) (PHIU) (DLTG) (DLTG)
                 (PHIG) (PHIG) (PIU) (PIU) (PIG) (PIG) (SGG) (DLTU)
                 (DLTU) (SGU) (DLTG) (DLTG) (PIU) (PIU) (SGU) (PIG)
                 (PIG) (SGG) (PIU) (PIU) (DLTU) (DLTU) (SGU) (PIG)
                 (PIG) (SGG) (SGU)
 The electronic state of the initial guess is 1-SGG.
 Leave Link  401 at Sun Aug 18 15:12:35 2024, MaxMem=   13107200 cpu:       0.3
 (Enter /programs/64bit/g09/g09-gfortran/bin/l502.exe)
 Closed shell SCF:
 Requested convergence on RMS density matrix=1.00D-08 within 128 cycles.
 Requested convergence on MAX density matrix=1.00D-06.
 Requested convergence on             energy=1.00D-06.
 No special actions if energy rises.
 Using DIIS extrapolation, IDIIS=  1040.
 Integral symmetry usage will be decided dynamically.
        16628 words used for storage of precomputed grid.
 Keep R1 ints in memory in canonical form, NReq=5079467.
 IEnd=       50598 IEndB=       50598 NGot=    13107200 MDV=     9989330
 LenX=     9989330 LenY=     9983989
 Symmetry not used in FoFDir.
 MinBra= 0 MaxBra= 3 Meth= 1.
 IRaf=       0 NMat=   1 IRICut=       1 DoRegI=T DoRafI=F ISym2E= 0 JSym2E=0.
 Integral accuracy reduced to 1.0D-05 until final iterations.

 Cycle   1  Pass 0  IDiag  1:
 E= -1.17483289107840    
 DIIS: error= 2.14D-02 at cycle   1 NSaved=   1.
 NSaved= 1 IEnMin= 1 EnMin= -1.17483289107840     IErMin= 1 ErrMin= 2.14D-02
 ErrMax= 2.14D-02 EMaxC= 1.00D-01 BMatC= 4.09D-03 BMatP= 4.09D-03
 IDIUse=3 WtCom= 7.86D-01 WtEn= 2.14D-01
 Coeff-Com:  0.100D+01
 Coeff-En:   0.100D+01
 Coeff:      0.100D+01
 Gap=     0.470 Goal=   None    Shift=    0.000
 GapD=    0.470 DampG=2.000 DampE=0.500 DampFc=1.0000 IDamp=-1.
 RMSDP=7.15D-04 MaxDP=1.04D-02              OVMax= 6.60D-02

 Cycle   2  Pass 0  IDiag  1:
 E= -1.18025633176970     Delta-E=       -0.005423440691 Rises=F Damp=F
 DIIS: error= 5.72D-03 at cycle   2 NSaved=   2.
 NSaved= 2 IEnMin= 2 EnMin= -1.18025633176970     IErMin= 2 ErrMin= 5.72D-03
 ErrMax= 5.72D-03 EMaxC= 1.00D-01 BMatC= 1.87D-04 BMatP= 4.09D-03
 IDIUse=3 WtCom= 9.43D-01 WtEn= 5.72D-02
 Coeff-Com:  0.171D+00 0.829D+00
 Coeff-En:   0.000D+00 0.100D+01
 Coeff:      0.162D+00 0.838D+00
 Gap=     0.485 Goal=   None    Shift=    0.000
 RMSDP=1.31D-04 MaxDP=1.59D-03 DE=-5.42D-03 OVMax= 1.24D-02

 Cycle   3  Pass 0  IDiag  1:
 E= -1.18053531669376     Delta-E=       -0.000278984924 Rises=F Damp=F
 DIIS: error= 1.18D-04 at cycle   3 NSaved=   3.
 NSaved= 3 IEnMin= 3 EnMin= -1.18053531669376     IErMin= 3 ErrMin= 1.18D-04
 ErrMax= 1.18D-04 EMaxC= 1.00D-01 BMatC= 1.72D-07 BMatP= 1.87D-04
 IDIUse=3 WtCom= 9.99D-01 WtEn= 1.18D-03
 Coeff-Com: -0.886D-02-0.115D-01 0.102D+01
 Coeff-En:   0.000D+00 0.000D+00 0.100D+01
 Coeff:     -0.885D-02-0.115D-01 0.102D+01
 Gap=     0.485 Goal=   None    Shift=    0.000
 RMSDP=4.12D-06 MaxDP=6.03D-05 DE=-2.79D-04 OVMax= 3.56D-04

 Initial convergence to 1.0D-05 achieved.  Increase integral accuracy.
 Cycle   4  Pass 1  IDiag  1:
 E= -1.18053375146239     Delta-E=        0.000001565231 Rises=F Damp=F
 DIIS: error= 5.52D-06 at cycle   1 NSaved=   1.
 NSaved= 1 IEnMin= 1 EnMin= -1.18053375146239     IErMin= 1 ErrMin= 5.52D-06
 ErrMax= 5.52D-06 EMaxC= 1.00D-01 BMatC= 2.62D-10 BMatP= 2.62D-10
 IDIUse=1 WtCom= 1.00D+00 WtEn= 0.00D+00
 Coeff-Com:  0.100D+01
 Coeff:      0.100D+01
 Gap=     0.485 Goal=   None    Shift=    0.000
 RMSDP=4.12D-06 MaxDP=6.03D-05 DE= 1.57D-06 OVMax= 4.14D-06

 Cycle   5  Pass 1  IDiag  1:
 E= -1.18053375155404     Delta-E=       -0.000000000092 Rises=F Damp=F
 DIIS: error= 3.04D-07 at cycle   2 NSaved=   2.
 NSaved= 2 IEnMin= 2 EnMin= -1.18053375155404     IErMin= 2 ErrMin= 3.04D-07
 ErrMax= 3.04D-07 EMaxC= 1.00D-01 BMatC= 9.30D-13 BMatP= 2.62D-10
 IDIUse=1 WtCom= 1.00D+00 WtEn= 0.00D+00
 Coeff-Com: -0.502D-01 0.105D+01
 Coeff:     -0.502D-01 0.105D+01
 Gap=     0.485 Goal=   None    Shift=    0.000
 RMSDP=8.52D-09 MaxDP=1.48D-07 DE=-9.16D-11 OVMax= 4.80D-07

 SCF Done:  E(RB3LYP) =  -1.18053375155     A.U. after    5 cycles
             Convg  =    0.8524D-08             -V/T =  2.0316
 KE= 1.144362552102D+00 PE=-3.650201460615D+00 EE= 6.102008210269D-01
 Leave Link  502 at Sun Aug 18 15:12:36 2024, MaxMem=   13107200 cpu:       0.8
 (Enter /programs/64bit/g09/g09-gfortran/bin/l601.exe)
 Copying SCF densities to generalized density rwf, IOpCl= 0 IROHF=0.

 **********************************************************************

            Population analysis using the SCF density.

 **********************************************************************

 Orbital symmetries:
       Occupied  (SGG)
       Virtual   (SGU) (SGG) (PIU) (PIU) (SGU) (SGG) (PIG) (PIG)
                 (SGU) (SGG) (SGU) (DLTG) (DLTG) (PIU) (PIU) (SGG)
                 (PIG) (PIG) (PIU) (PIU) (DLTU) (DLTU) (SGU) (SGG)
                 (PIG) (PIG) (SGU) (SGG) (PHIU) (PHIU) (DLTG) (DLTG)
                 (PHIG) (PHIG) (PIU) (PIU) (PIG) (PIG) (SGG) (DLTU)
                 (DLTU) (SGU) (DLTG) (DLTG) (PIU) (PIU) (SGU) (PIG)
                 (PIG) (SGG) (PIU) (PIU) (DLTU) (DLTU) (SGU) (PIG)
                 (PIG) (SGG) (SGU)
 The electronic state is 1-SGG.
 Alpha  occ. eigenvalues --   -0.43491
 Alpha virt. eigenvalues --    0.04975   0.14147   0.35571   0.35571   0.37580
 Alpha virt. eigenvalues --    0.65481   0.66903   0.66903   0.98090   1.11005
 Alpha virt. eigenvalues --    1.35459   1.71436   1.71436   1.89645   1.89645
 Alpha virt. eigenvalues --    2.12058   2.15240   2.15240   2.33429   2.33429
 Alpha virt. eigenvalues --    2.33730   2.33730   2.78876   3.08770   3.36579
 Alpha virt. eigenvalues --    3.36579   3.68451   5.23792   5.39678   5.39678
 Alpha virt. eigenvalues --    5.91111   5.91111   6.44992   6.44992   6.60631
 Alpha virt. eigenvalues --    6.60631   6.79554   6.79554   6.96945   7.31334
 Alpha virt. eigenvalues --    7.31334   7.45518   7.63455   7.63455   7.63656
 Alpha virt. eigenvalues --    7.63656   7.89550   8.00489   8.00489   8.16490
 Alpha virt. eigenvalues --    8.47026   8.47026   8.84610   8.84610  10.01505
 Alpha virt. eigenvalues --   12.36397  12.36397  12.54881  15.64387
     Molecular Orbital Coefficients:
                           1         2         3         4         5
                       (SGG)--O  (SGU)--V  (SGG)--V  (PIU)--V  (PIU)--V
     Eigenvalues --    -0.43491   0.04975   0.14147   0.35571   0.35571
   1 1   H  1S          0.07625   0.03382  -0.04324   0.00000   0.00000
   2        2S          0.18934  -0.02331   0.11860   0.00000   0.00000
   3        3S          0.24897  -0.46153  -0.83334   0.00000   0.00000
   4        4S          0.10491   2.26777   0.92763   0.00000   0.00000
   5        5PX         0.00000   0.00000   0.00000   0.04521   0.00000
   6        5PY         0.00000   0.00000   0.00000   0.00000   0.04521
   7        5PZ        -0.00518   0.00070  -0.02229   0.00000   0.00000
   8        6PX         0.00000   0.00000   0.00000  -0.13819   0.00000
   9        6PY         0.00000   0.00000   0.00000   0.00000  -0.13819
  10        6PZ        -0.01020   0.13279   0.05769   0.00000   0.00000
  11        7PX         0.00000   0.00000   0.00000   0.61122   0.00000
  12        7PY         0.00000   0.00000   0.00000   0.00000   0.61122
  13        7PZ        -0.01077   0.18173   0.03034   0.00000   0.00000
  14        8D 0        0.00151  -0.00827  -0.00080   0.00000   0.00000
  15        8D+1        0.00000   0.00000   0.00000  -0.00350   0.00000
  16        8D-1        0.00000   0.00000   0.00000   0.00000  -0.00350
  17        8D+2        0.00000  -0.00000   0.00000   0.00000   0.00000
  18        8D-2        0.00000   0.00000   0.00000   0.00000   0.00000
  19        9D 0        0.00095  -0.04511  -0.06850   0.00000   0.00000
  20        9D+1        0.00000   0.00000   0.00000   0.00156   0.00000
  21        9D-1        0.00000   0.00000   0.00000   0.00000   0.00156
  22        9D+2        0.00000   0.00000  -0.00000   0.00000   0.00000
  23        9D-2        0.00000   0.00000   0.00000   0.00000   0.00000
  24       10F 0       -0.00035   0.00600   0.02059   0.00000   0.00000
  25       10F+1        0.00000   0.00000   0.00000   0.00815   0.00000
  26       10F-1        0.00000   0.00000   0.00000   0.00000   0.00815
  27       10F+2        0.00000   0.00000   0.00000   0.00000   0.00000
  28       10F-2        0.00000   0.00000   0.00000   0.00000   0.00000
  29       10F+3        0.00000   0.00000   0.00000  -0.00000   0.00000
  30       10F-3        0.00000   0.00000   0.00000   0.00000   0.00000
  31 2   H  1S          0.07625  -0.03382  -0.04324   0.00000   0.00000
  32        2S          0.18934   0.02331   0.11860   0.00000   0.00000
  33        3S          0.24897   0.46153  -0.83334   0.00000   0.00000
  34        4S          0.10491  -2.26777   0.92763   0.00000   0.00000
  35        5PX         0.00000   0.00000   0.00000   0.04521   0.00000
  36        5PY         0.00000   0.00000   0.00000   0.00000   0.04521
  37        5PZ         0.00518   0.00070   0.02229   0.00000   0.00000
  38        6PX         0.00000   0.00000   0.00000  -0.13819   0.00000
  39        6PY         0.00000   0.00000   0.00000   0.00000  -0.13819
  40        6PZ         0.01020   0.13279  -0.05769   0.00000   0.00000
  41        7PX         0.00000   0.00000   0.00000   0.61122   0.00000
  42        7PY         0.00000   0.00000   0.00000   0.00000   0.61122
  43        7PZ         0.01077   0.18173  -0.03034   0.00000   0.00000
  44        8D 0        0.00151   0.00827  -0.00080   0.00000   0.00000
  45        8D+1        0.00000   0.00000   0.00000   0.00350   0.00000
  46        8D-1        0.00000   0.00000   0.00000   0.00000   0.00350
  47        8D+2        0.00000   0.00000   0.00000   0.00000   0.00000
  48        8D-2        0.00000   0.00000   0.00000   0.00000   0.00000
  49        9D 0        0.00095   0.04511  -0.06850   0.00000   0.00000
  50        9D+1        0.00000   0.00000   0.00000  -0.00156   0.00000
  51        9D-1        0.00000   0.00000   0.00000   0.00000  -0.00156
  52        9D+2        0.00000  -0.00000  -0.00000   0.00000   0.00000
  53        9D-2        0.00000   0.00000   0.00000   0.00000   0.00000
  54       10F 0        0.00035   0.00600  -0.02059   0.00000   0.00000
  55       10F+1        0.00000   0.00000   0.00000   0.00815   0.00000
  56       10F-1        0.00000   0.00000   0.00000   0.00000   0.00815
  57       10F+2       -0.00000   0.00000  -0.00000   0.00000   0.00000
  58       10F-2        0.00000   0.00000   0.00000   0.00000   0.00000
  59       10F+3        0.00000   0.00000   0.00000  -0.00000   0.00000
  60       10F-3        0.00000   0.00000   0.00000   0.00000   0.00000
                           6         7         8         9        10
                       (SGU)--V  (SGG)--V  (PIG)--V  (PIG)--V  (SGU)--V
     Eigenvalues --     0.37580   0.65481   0.66903   0.66903   0.98090
   1 1   H  1S          0.03930  -0.00054   0.00000   0.00000  -0.05541
   2        2S          0.59963   0.38697   0.00000   0.00000   1.15196
   3        3S          3.60189   0.54967   0.00000   0.00000  23.45828
   4        4S         -3.01202  -0.40562   0.00000   0.00000  -0.38567
   5        5PX         0.00000   0.00000   0.02727   0.00000   0.00000
   6        5PY         0.00000   0.00000   0.00000   0.02727   0.00000
   7        5PZ         0.02442   0.01293   0.00000   0.00000  -0.00926
   8        6PX         0.00000   0.00000   0.08591   0.00000   0.00000
   9        6PY         0.00000   0.00000   0.00000   0.08591   0.00000
  10        6PZ        -0.50769  -0.13778   0.00000   0.00000  -0.84861
  11        7PX         0.00000   0.00000   1.89882   0.00000   0.00000
  12        7PY         0.00000   0.00000   0.00000   1.89882   0.00000
  13        7PZ        -0.51811   1.51722   0.00000   0.00000  -9.43391
  14        8D 0        0.02974   0.02052   0.00000   0.00000   0.01633
  15        8D+1        0.00000   0.00000  -0.00116   0.00000   0.00000
  16        8D-1        0.00000   0.00000   0.00000  -0.00116   0.00000
  17        8D+2       -0.00000  -0.00000   0.00000   0.00000  -0.00000
  18        8D-2        0.00000   0.00000   0.00000   0.00000   0.00000
  19        9D 0        0.19654  -0.28753   0.00000   0.00000   0.68815
  20        9D+1        0.00000   0.00000  -0.38624   0.00000   0.00000
  21        9D-1        0.00000   0.00000   0.00000  -0.38624   0.00000
  22        9D+2       -0.00000   0.00000   0.00000   0.00000   0.00000
  23        9D-2        0.00000   0.00000   0.00000   0.00000   0.00000
  24       10F 0       -0.02333   0.04069   0.00000   0.00000  -0.05880
  25       10F+1        0.00000   0.00000   0.06008   0.00000   0.00000
  26       10F-1        0.00000   0.00000   0.00000   0.06008   0.00000
  27       10F+2        0.00000  -0.00000   0.00000   0.00000   0.00000
  28       10F-2        0.00000   0.00000   0.00000   0.00000   0.00000
  29       10F+3        0.00000   0.00000  -0.00000   0.00000   0.00000
  30       10F-3        0.00000   0.00000   0.00000   0.00000   0.00000
  31 2   H  1S         -0.03930  -0.00054   0.00000   0.00000   0.05541
  32        2S         -0.59963   0.38697   0.00000   0.00000  -1.15196
  33        3S         -3.60189   0.54967   0.00000   0.00000 -23.45828
  34        4S          3.01202  -0.40562   0.00000   0.00000   0.38567
  35        5PX         0.00000   0.00000  -0.02727   0.00000   0.00000
  36        5PY         0.00000   0.00000   0.00000  -0.02727   0.00000
  37        5PZ         0.02442  -0.01293   0.00000   0.00000  -0.00926
  38        6PX         0.00000   0.00000  -0.08591   0.00000   0.00000
  39        6PY         0.00000   0.00000   0.00000  -0.08591   0.00000
  40        6PZ        -0.50769   0.13778   0.00000   0.00000  -0.84861
  41        7PX         0.00000   0.00000  -1.89882   0.00000   0.00000
  42        7PY         0.00000   0.00000   0.00000  -1.89882   0.00000
  43        7PZ        -0.51811  -1.51722   0.00000   0.00000  -9.43391
  44        8D 0       -0.02974   0.02052   0.00000   0.00000  -0.01633
  45        8D+1        0.00000   0.00000  -0.00116   0.00000   0.00000
  46        8D-1        0.00000   0.00000   0.00000  -0.00116   0.00000
  47        8D+2        0.00000  -0.00000   0.00000   0.00000   0.00000
  48        8D-2        0.00000   0.00000   0.00000   0.00000   0.00000
  49        9D 0       -0.19654  -0.28753   0.00000   0.00000  -0.68815
  50        9D+1        0.00000   0.00000  -0.38624   0.00000   0.00000
  51        9D-1        0.00000   0.00000   0.00000  -0.38624   0.00000
  52        9D+2        0.00000   0.00000   0.00000   0.00000  -0.00000
  53        9D-2        0.00000   0.00000   0.00000   0.00000   0.00000
  54       10F 0       -0.02333  -0.04069   0.00000   0.00000  -0.05880
  55       10F+1        0.00000   0.00000  -0.06008   0.00000   0.00000
  56       10F-1        0.00000   0.00000   0.00000  -0.06008   0.00000
  57       10F+2        0.00000   0.00000   0.00000   0.00000   0.00000
  58       10F-2        0.00000   0.00000   0.00000   0.00000   0.00000
  59       10F+3        0.00000   0.00000   0.00000   0.00000   0.00000
  60       10F-3        0.00000   0.00000   0.00000  -0.00000   0.00000
                          11        12        13        14        15
                       (SGG)--V  (SGU)--V  (DLTG)--  (DLTG)--  (PIU)--V
     Eigenvalues --     1.11005   1.35459   1.71436   1.71436   1.89645
   1 1   H  1S          0.06024  -0.15210  -0.00000   0.00000   0.00000
   2        2S          1.91109   0.96068  -0.00000   0.00000   0.00000
   3        3S         -1.85027   5.16774  -0.00000   0.00000   0.00000
   4        4S          0.62620  -2.01238   0.00000   0.00000   0.00000
   5        5PX         0.00000   0.00000   0.00000   0.00000   0.00000
   6        5PY         0.00000   0.00000   0.00000   0.00000  -0.11665
   7        5PZ        -0.13818   0.05791   0.00000   0.00000   0.00000
   8        6PX         0.00000   0.00000   0.00000   0.00000   0.00000
   9        6PY         0.00000   0.00000   0.00000   0.00000   0.88807
  10        6PZ         0.10951  -1.93509  -0.00000   0.00000   0.00000
  11        7PX         0.00000   0.00000   0.00000   0.00000   0.00000
  12        7PY         0.00000   0.00000   0.00000   0.00000  -0.54759
  13        7PZ         0.71248  -0.77909  -0.00000   0.00000   0.00000
  14        8D 0        0.01712   0.11110  -0.00000   0.00000   0.00000
  15        8D+1        0.00000   0.00000   0.00000   0.00000   0.00000
  16        8D-1        0.00000   0.00000   0.00000   0.00000   0.02621
  17        8D+2        0.00000   0.00000  -0.09079   0.00000   0.00000
  18        8D-2        0.00000   0.00000   0.00000  -0.09079   0.00000
  19        9D 0       -0.53435   0.70546   0.00000   0.00000   0.00000
  20        9D+1        0.00000   0.00000   0.00000   0.00000   0.00000
  21        9D-1        0.00000   0.00000   0.00000   0.00000  -0.17772
  22        9D+2       -0.00000  -0.00000   0.62120   0.00000   0.00000
  23        9D-2        0.00000   0.00000   0.00000   0.62120   0.00000
  24       10F 0        0.12692  -0.08180  -0.00000   0.00000   0.00000
  25       10F+1        0.00000   0.00000   0.00000   0.00000   0.00000
  26       10F-1        0.00000   0.00000   0.00000   0.00000  -0.02960
  27       10F+2       -0.00000  -0.00000   0.01928   0.00000   0.00000
  28       10F-2        0.00000   0.00000   0.00000   0.01928   0.00000
  29       10F+3        0.00000   0.00000   0.00000   0.00000   0.00000
  30       10F-3        0.00000   0.00000   0.00000   0.00000  -0.00000
  31 2   H  1S          0.06024   0.15210  -0.00000   0.00000   0.00000
  32        2S          1.91109  -0.96068  -0.00000   0.00000   0.00000
  33        3S         -1.85027  -5.16774  -0.00000   0.00000   0.00000
  34        4S          0.62620   2.01238   0.00000   0.00000   0.00000
  35        5PX         0.00000   0.00000   0.00000   0.00000   0.00000
  36        5PY         0.00000   0.00000   0.00000   0.00000  -0.11665
  37        5PZ         0.13818   0.05791  -0.00000   0.00000   0.00000
  38        6PX         0.00000   0.00000   0.00000   0.00000   0.00000
  39        6PY         0.00000   0.00000   0.00000   0.00000   0.88807
  40        6PZ        -0.10951  -1.93509   0.00000   0.00000   0.00000
  41        7PX         0.00000   0.00000   0.00000   0.00000   0.00000
  42        7PY         0.00000   0.00000   0.00000   0.00000  -0.54759
  43        7PZ        -0.71248  -0.77909   0.00000   0.00000   0.00000
  44        8D 0        0.01712  -0.11110  -0.00000   0.00000   0.00000
  45        8D+1        0.00000   0.00000   0.00000   0.00000   0.00000
  46        8D-1        0.00000   0.00000   0.00000   0.00000  -0.02621
  47        8D+2        0.00000  -0.00000  -0.09079   0.00000   0.00000
  48        8D-2        0.00000   0.00000   0.00000  -0.09079   0.00000
  49        9D 0       -0.53435  -0.70546   0.00000   0.00000   0.00000
  50        9D+1        0.00000   0.00000   0.00000   0.00000   0.00000
  51        9D-1        0.00000   0.00000   0.00000   0.00000   0.17772
  52        9D+2       -0.00000   0.00000   0.62120   0.00000   0.00000
  53        9D-2        0.00000   0.00000   0.00000   0.62120   0.00000
  54       10F 0       -0.12692  -0.08180   0.00000   0.00000   0.00000
  55       10F+1        0.00000   0.00000   0.00000   0.00000   0.00000
  56       10F-1        0.00000   0.00000   0.00000   0.00000  -0.02960
  57       10F+2        0.00000  -0.00000  -0.01928   0.00000   0.00000
  58       10F-2        0.00000   0.00000   0.00000  -0.01928   0.00000
  59       10F+3        0.00000   0.00000   0.00000   0.00000   0.00000
  60       10F-3        0.00000   0.00000   0.00000   0.00000  -0.00000
                          16        17        18        19        20
                       (PIU)--V  (SGG)--V  (PIG)--V  (PIG)--V  (PIU)--V
     Eigenvalues --     1.89645   2.12058   2.15240   2.15240   2.33429
   1 1   H  1S          0.00000   0.01479   0.00000   0.00000   0.00000
   2        2S          0.00000   0.79851   0.00000   0.00000   0.00000
   3        3S          0.00000   0.04659   0.00000   0.00000   0.00000
   4        4S          0.00000  -0.20910   0.00000   0.00000   0.00000
   5        5PX        -0.11665   0.00000  -0.01287   0.00000  -0.06690
   6        5PY         0.00000   0.00000   0.00000  -0.01287   0.00000
   7        5PZ         0.00000  -0.01623   0.00000   0.00000   0.00000
   8        6PX         0.88807   0.00000   0.67024   0.00000   0.68288
   9        6PY         0.00000   0.00000   0.00000   0.67024   0.00000
  10        6PZ         0.00000  -0.65100   0.00000   0.00000   0.00000
  11        7PX        -0.54759   0.00000   2.10592   0.00000  -0.25958
  12        7PY         0.00000   0.00000   0.00000   2.10592   0.00000
  13        7PZ         0.00000   1.61245   0.00000   0.00000   0.00000
  14        8D 0        0.00000   0.06939   0.00000   0.00000   0.00000
  15        8D+1        0.02621   0.00000  -0.02800   0.00000  -0.11048
  16        8D-1        0.00000   0.00000   0.00000  -0.02800   0.00000
  17        8D+2        0.00000  -0.00000   0.00000   0.00000   0.00000
  18        8D-2        0.00000   0.00000   0.00000   0.00000   0.00000
  19        9D 0        0.00000  -1.11906   0.00000   0.00000   0.00000
  20        9D+1       -0.17772   0.00000  -1.93697   0.00000   0.81704
  21        9D-1        0.00000   0.00000   0.00000  -1.93697   0.00000
  22        9D+2        0.00000   0.00000   0.00000   0.00000   0.00000
  23        9D-2        0.00000   0.00000   0.00000   0.00000   0.00000
  24       10F 0        0.00000   0.10224   0.00000   0.00000   0.00000
  25       10F+1       -0.02960   0.00000   0.25783   0.00000  -0.02440
  26       10F-1        0.00000   0.00000   0.00000   0.25783   0.00000
  27       10F+2        0.00000  -0.00000   0.00000   0.00000   0.00000
  28       10F-2        0.00000   0.00000   0.00000   0.00000   0.00000
  29       10F+3        0.00000   0.00000  -0.00000   0.00000  -0.00000
  30       10F-3        0.00000   0.00000   0.00000   0.00000   0.00000
  31 2   H  1S          0.00000   0.01479   0.00000   0.00000   0.00000
  32        2S          0.00000   0.79851   0.00000   0.00000   0.00000
  33        3S          0.00000   0.04659   0.00000   0.00000   0.00000
  34        4S          0.00000  -0.20910   0.00000   0.00000   0.00000
  35        5PX        -0.11665   0.00000   0.01287   0.00000  -0.06690
  36        5PY         0.00000   0.00000   0.00000   0.01287   0.00000
  37        5PZ         0.00000   0.01623   0.00000   0.00000   0.00000
  38        6PX         0.88807   0.00000  -0.67024   0.00000   0.68288
  39        6PY         0.00000   0.00000   0.00000  -0.67024   0.00000
  40        6PZ         0.00000   0.65100   0.00000   0.00000   0.00000
  41        7PX        -0.54759   0.00000  -2.10592   0.00000  -0.25958
  42        7PY         0.00000   0.00000   0.00000  -2.10592   0.00000
  43        7PZ         0.00000  -1.61245   0.00000   0.00000   0.00000
  44        8D 0        0.00000   0.06939   0.00000   0.00000   0.00000
  45        8D+1       -0.02621   0.00000  -0.02800   0.00000   0.11048
  46        8D-1        0.00000   0.00000   0.00000  -0.02800   0.00000
  47        8D+2        0.00000  -0.00000   0.00000   0.00000   0.00000
  48        8D-2        0.00000   0.00000   0.00000   0.00000   0.00000
  49        9D 0        0.00000  -1.11906   0.00000   0.00000   0.00000
  50        9D+1        0.17772   0.00000  -1.93697   0.00000  -0.81704
  51        9D-1        0.00000   0.00000   0.00000  -1.93697   0.00000
  52        9D+2        0.00000   0.00000   0.00000   0.00000   0.00000
  53        9D-2        0.00000   0.00000   0.00000   0.00000   0.00000
  54       10F 0        0.00000  -0.10224   0.00000   0.00000   0.00000
  55       10F+1       -0.02960   0.00000  -0.25783   0.00000  -0.02440
  56       10F-1        0.00000   0.00000   0.00000  -0.25783   0.00000
  57       10F+2        0.00000   0.00000   0.00000   0.00000   0.00000
  58       10F-2        0.00000   0.00000   0.00000   0.00000   0.00000
  59       10F+3        0.00000   0.00000   0.00000   0.00000  -0.00000
  60       10F-3        0.00000   0.00000   0.00000  -0.00000   0.00000
                          21        22        23        24        25
                       (PIU)--V  (DLTU)--  (DLTU)--  (SGU)--V  (SGG)--V
     Eigenvalues --     2.33429   2.33730   2.33730   2.78876   3.08770
   1 1   H  1S          0.00000   0.00000   0.00000  -0.08645  -0.03436
   2        2S          0.00000  -0.00000   0.00000   3.63393   2.71316
   3        3S          0.00000  -0.00000   0.00000  17.77770  -1.59340
   4        4S          0.00000   0.00000   0.00000  -0.10510   0.26607
   5        5PX         0.00000   0.00000   0.00000   0.00000   0.00000
   6        5PY        -0.06690   0.00000   0.00000   0.00000   0.00000
   7        5PZ         0.00000   0.00000   0.00000  -0.01375  -0.31982
   8        6PX         0.00000   0.00000   0.00000   0.00000   0.00000
   9        6PY         0.68288   0.00000   0.00000   0.00000   0.00000
  10        6PZ         0.00000   0.00000   0.00000  -1.74053   1.03735
  11        7PX         0.00000   0.00000   0.00000   0.00000   0.00000
  12        7PY        -0.25958   0.00000   0.00000   0.00000   0.00000
  13        7PZ         0.00000   0.00000   0.00000  -7.46215   1.10948
  14        8D 0        0.00000  -0.00000   0.00000   0.01645   0.09089
  15        8D+1        0.00000   0.00000   0.00000   0.00000   0.00000
  16        8D-1       -0.11048   0.00000   0.00000   0.00000   0.00000
  17        8D+2        0.00000  -0.10700   0.00000  -0.00000  -0.00000
  18        8D-2        0.00000   0.00000  -0.10700   0.00000   0.00000
  19        9D 0        0.00000  -0.00000   0.00000   1.97223  -1.89209
  20        9D+1        0.00000   0.00000   0.00000   0.00000   0.00000
  21        9D-1        0.81704   0.00000   0.00000   0.00000   0.00000
  22        9D+2        0.00000   1.14864   0.00000   0.00000   0.00000
  23        9D-2        0.00000   0.00000   1.14864   0.00000   0.00000
  24       10F 0        0.00000   0.00000   0.00000  -0.12191   0.20796
  25       10F+1        0.00000   0.00000   0.00000   0.00000   0.00000
  26       10F-1       -0.02440   0.00000   0.00000   0.00000   0.00000
  27       10F+2        0.00000  -0.07170   0.00000  -0.00000  -0.00000
  28       10F-2        0.00000   0.00000  -0.07170   0.00000   0.00000
  29       10F+3        0.00000   0.00000   0.00000   0.00000   0.00000
  30       10F-3        0.00000   0.00000   0.00000   0.00000   0.00000
  31 2   H  1S          0.00000  -0.00000   0.00000   0.08645  -0.03436
  32        2S          0.00000   0.00000   0.00000  -3.63393   2.71316
  33        3S          0.00000   0.00000   0.00000 -17.77770  -1.59340
  34        4S          0.00000  -0.00000   0.00000   0.10510   0.26607
  35        5PX         0.00000   0.00000   0.00000   0.00000   0.00000
  36        5PY        -0.06690   0.00000   0.00000   0.00000   0.00000
  37        5PZ         0.00000   0.00000   0.00000  -0.01375   0.31982
  38        6PX         0.00000   0.00000   0.00000   0.00000   0.00000
  39        6PY         0.68288   0.00000   0.00000   0.00000   0.00000
  40        6PZ         0.00000   0.00000   0.00000  -1.74053  -1.03735
  41        7PX         0.00000   0.00000   0.00000   0.00000   0.00000
  42        7PY        -0.25958   0.00000   0.00000   0.00000   0.00000
  43        7PZ         0.00000   0.00000   0.00000  -7.46215  -1.10948
  44        8D 0        0.00000   0.00000   0.00000  -0.01645   0.09089
  45        8D+1        0.00000   0.00000   0.00000   0.00000   0.00000
  46        8D-1        0.11048   0.00000   0.00000   0.00000   0.00000
  47        8D+2        0.00000   0.10700   0.00000   0.00000  -0.00000
  48        8D-2        0.00000   0.00000   0.10700   0.00000   0.00000
  49        9D 0        0.00000   0.00000   0.00000  -1.97223  -1.89209
  50        9D+1        0.00000   0.00000   0.00000   0.00000   0.00000
  51        9D-1       -0.81704   0.00000   0.00000   0.00000   0.00000
  52        9D+2        0.00000  -1.14864   0.00000  -0.00000   0.00000
  53        9D-2        0.00000   0.00000  -1.14864   0.00000   0.00000
  54       10F 0        0.00000   0.00000   0.00000  -0.12191  -0.20796
  55       10F+1        0.00000   0.00000   0.00000   0.00000   0.00000
  56       10F-1       -0.02440   0.00000   0.00000   0.00000   0.00000
  57       10F+2        0.00000  -0.07170   0.00000  -0.00000   0.00000
  58       10F-2        0.00000   0.00000  -0.07170   0.00000   0.00000
  59       10F+3        0.00000   0.00000   0.00000   0.00000   0.00000
  60       10F-3        0.00000   0.00000   0.00000   0.00000   0.00000
                          26        27        28        29        30
                       (PIG)--V  (PIG)--V  (SGU)--V  (SGG)--V  (PHIU)--
     Eigenvalues --     3.36579   3.36579   3.68451   5.23792   5.39678
   1 1   H  1S          0.00000   0.00000   0.01760  -0.35149   0.00000
   2        2S          0.00000   0.00000   6.48709   1.50109   0.00000
   3        3S          0.00000   0.00000   7.48275  -1.01143   0.00000
   4        4S          0.00000   0.00000  -1.21130   0.26356   0.00000
   5        5PX         0.00000  -0.24796   0.00000   0.00000   0.00000
   6        5PY        -0.24796   0.00000   0.00000   0.00000   0.00000
   7        5PZ         0.00000   0.00000   0.17664  -0.44783   0.00000
   8        6PX         0.00000   3.24313   0.00000   0.00000   0.00000
   9        6PY         3.24313   0.00000   0.00000   0.00000  -0.00000
  10        6PZ         0.00000   0.00000  -5.76537   0.68319   0.00000
  11        7PX         0.00000   1.00721   0.00000   0.00000   0.00000
  12        7PY         1.00721   0.00000   0.00000   0.00000   0.00000
  13        7PZ         0.00000   0.00000  -2.09814   0.20977   0.00000
  14        8D 0        0.00000   0.00000   0.28244  -0.03051   0.00000
  15        8D+1        0.00000  -0.07073   0.00000   0.00000   0.00000
  16        8D-1       -0.07073   0.00000   0.00000   0.00000  -0.00000
  17        8D+2        0.00000   0.00000   0.00000   0.00000   0.00000
  18        8D-2        0.00000   0.00000   0.00000   0.00000   0.00000
  19        9D 0        0.00000   0.00000   1.72966  -0.46701   0.00000
  20        9D+1        0.00000  -2.59114   0.00000   0.00000   0.00000
  21        9D-1       -2.59114   0.00000   0.00000   0.00000  -0.00000
  22        9D+2        0.00000   0.00000   0.00000  -0.00000   0.00000
  23        9D-2        0.00000   0.00000   0.00000   0.00000   0.00000
  24       10F 0        0.00000   0.00000  -0.22111   0.67932   0.00000
  25       10F+1        0.00000   0.31234   0.00000   0.00000   0.00000
  26       10F-1        0.31234   0.00000   0.00000   0.00000   0.00000
  27       10F+2        0.00000   0.00000  -0.00000  -0.00000   0.00000
  28       10F-2        0.00000   0.00000   0.00000   0.00000   0.00000
  29       10F+3        0.00000  -0.00000   0.00000   0.00000   0.00000
  30       10F-3        0.00000   0.00000   0.00000   0.00000   0.63116
  31 2   H  1S          0.00000   0.00000  -0.01760  -0.35149   0.00000
  32        2S          0.00000   0.00000  -6.48709   1.50109   0.00000
  33        3S          0.00000   0.00000  -7.48275  -1.01143   0.00000
  34        4S          0.00000   0.00000   1.21130   0.26356   0.00000
  35        5PX         0.00000   0.24796   0.00000   0.00000   0.00000
  36        5PY         0.24796   0.00000   0.00000   0.00000   0.00000
  37        5PZ         0.00000   0.00000   0.17664   0.44783   0.00000
  38        6PX         0.00000  -3.24313   0.00000   0.00000   0.00000
  39        6PY        -3.24313   0.00000   0.00000   0.00000  -0.00000
  40        6PZ         0.00000   0.00000  -5.76537  -0.68319   0.00000
  41        7PX         0.00000  -1.00721   0.00000   0.00000   0.00000
  42        7PY        -1.00721   0.00000   0.00000   0.00000   0.00000
  43        7PZ         0.00000   0.00000  -2.09814  -0.20977   0.00000
  44        8D 0        0.00000   0.00000  -0.28244  -0.03051   0.00000
  45        8D+1        0.00000  -0.07073   0.00000   0.00000   0.00000
  46        8D-1       -0.07073   0.00000   0.00000   0.00000   0.00000
  47        8D+2        0.00000   0.00000  -0.00000   0.00000   0.00000
  48        8D-2        0.00000   0.00000   0.00000   0.00000   0.00000
  49        9D 0        0.00000   0.00000  -1.72966  -0.46701   0.00000
  50        9D+1        0.00000  -2.59114   0.00000   0.00000   0.00000
  51        9D-1       -2.59114   0.00000   0.00000   0.00000   0.00000
  52        9D+2        0.00000   0.00000  -0.00000  -0.00000   0.00000
  53        9D-2        0.00000   0.00000   0.00000   0.00000   0.00000
  54       10F 0        0.00000   0.00000  -0.22111  -0.67932   0.00000
  55       10F+1        0.00000  -0.31234   0.00000   0.00000   0.00000
  56       10F-1       -0.31234   0.00000   0.00000   0.00000   0.00000
  57       10F+2        0.00000   0.00000  -0.00000   0.00000   0.00000
  58       10F-2        0.00000   0.00000   0.00000   0.00000   0.00000
  59       10F+3        0.00000   0.00000   0.00000   0.00000   0.00000
  60       10F-3       -0.00000   0.00000   0.00000   0.00000   0.63116
                          31        32        33        34        35
                       (PHIU)--  (DLTG)--  (DLTG)--  (PHIG)--  (PHIG)--
     Eigenvalues --     5.39678   5.91111   5.91111   6.44992   6.44992
   1 1   H  1S          0.00000  -0.00000   0.00000   0.00000   0.00000
   2        2S          0.00000   0.00000   0.00000   0.00000   0.00000
   3        3S          0.00000  -0.00000   0.00000   0.00000   0.00000
   4        4S          0.00000   0.00000   0.00000   0.00000   0.00000
   5        5PX        -0.00000   0.00000   0.00000  -0.00000   0.00000
   6        5PY         0.00000   0.00000   0.00000   0.00000   0.00000
   7        5PZ         0.00000   0.00000   0.00000   0.00000   0.00000
   8        6PX         0.00000   0.00000   0.00000  -0.00000   0.00000
   9        6PY         0.00000   0.00000   0.00000   0.00000   0.00000
  10        6PZ         0.00000  -0.00000   0.00000   0.00000   0.00000
  11        7PX        -0.00000   0.00000   0.00000  -0.00000   0.00000
  12        7PY         0.00000   0.00000   0.00000   0.00000   0.00000
  13        7PZ         0.00000   0.00000   0.00000   0.00000   0.00000
  14        8D 0        0.00000  -0.00000   0.00000   0.00000   0.00000
  15        8D+1        0.00000   0.00000   0.00000   0.00000   0.00000
  16        8D-1        0.00000   0.00000   0.00000   0.00000  -0.00000
  17        8D+2        0.00000  -0.12070   0.00000   0.00000   0.00000
  18        8D-2        0.00000   0.00000  -0.12070   0.00000   0.00000
  19        9D 0        0.00000  -0.00000   0.00000   0.00000   0.00000
  20        9D+1        0.00000   0.00000   0.00000   0.00000   0.00000
  21        9D-1        0.00000   0.00000   0.00000   0.00000  -0.00000
  22        9D+2        0.00000   0.15873   0.00000   0.00000   0.00000
  23        9D-2        0.00000   0.00000   0.15873   0.00000   0.00000
  24       10F 0        0.00000   0.00000   0.00000   0.00000   0.00000
  25       10F+1       -0.00000   0.00000   0.00000  -0.00000   0.00000
  26       10F-1        0.00000   0.00000   0.00000   0.00000   0.00000
  27       10F+2        0.00000   0.58256   0.00000   0.00000   0.00000
  28       10F-2        0.00000   0.00000   0.58256   0.00000   0.00000
  29       10F+3        0.63116   0.00000   0.00000   0.81931   0.00000
  30       10F-3        0.00000   0.00000   0.00000   0.00000   0.81931
  31 2   H  1S          0.00000  -0.00000   0.00000   0.00000   0.00000
  32        2S          0.00000   0.00000   0.00000   0.00000   0.00000
  33        3S          0.00000  -0.00000   0.00000   0.00000   0.00000
  34        4S          0.00000   0.00000   0.00000   0.00000   0.00000
  35        5PX        -0.00000   0.00000   0.00000   0.00000   0.00000
  36        5PY         0.00000   0.00000   0.00000   0.00000  -0.00000
  37        5PZ         0.00000  -0.00000   0.00000   0.00000   0.00000
  38        6PX         0.00000   0.00000   0.00000   0.00000   0.00000
  39        6PY         0.00000   0.00000   0.00000   0.00000  -0.00000
  40        6PZ         0.00000   0.00000   0.00000   0.00000   0.00000
  41        7PX        -0.00000   0.00000   0.00000   0.00000   0.00000
  42        7PY         0.00000   0.00000   0.00000   0.00000  -0.00000
  43        7PZ         0.00000  -0.00000   0.00000   0.00000   0.00000
  44        8D 0        0.00000  -0.00000   0.00000   0.00000   0.00000
  45        8D+1       -0.00000   0.00000   0.00000   0.00000   0.00000
  46        8D-1        0.00000   0.00000   0.00000   0.00000  -0.00000
  47        8D+2        0.00000  -0.12070   0.00000   0.00000   0.00000
  48        8D-2        0.00000   0.00000  -0.12070   0.00000   0.00000
  49        9D 0        0.00000  -0.00000   0.00000   0.00000   0.00000
  50        9D+1       -0.00000   0.00000   0.00000   0.00000   0.00000
  51        9D-1        0.00000   0.00000   0.00000   0.00000  -0.00000
  52        9D+2        0.00000   0.15873   0.00000   0.00000   0.00000
  53        9D-2        0.00000   0.00000   0.15873   0.00000   0.00000
  54       10F 0        0.00000  -0.00000   0.00000   0.00000   0.00000
  55       10F+1       -0.00000   0.00000   0.00000   0.00000   0.00000
  56       10F-1        0.00000   0.00000   0.00000   0.00000  -0.00000
  57       10F+2        0.00000  -0.58256   0.00000   0.00000   0.00000
  58       10F-2        0.00000   0.00000  -0.58256   0.00000   0.00000
  59       10F+3        0.63116   0.00000   0.00000  -0.81931   0.00000
  60       10F-3        0.00000   0.00000   0.00000   0.00000  -0.81931
                          36        37        38        39        40
                       (PIU)--V  (PIU)--V  (PIG)--V  (PIG)--V  (SGG)--V
     Eigenvalues --     6.60631   6.60631   6.79554   6.79554   6.96945
   1 1   H  1S          0.00000   0.00000   0.00000   0.00000  -0.23677
   2        2S          0.00000   0.00000   0.00000   0.00000   1.07854
   3        3S          0.00000   0.00000   0.00000   0.00000  -0.72779
   4        4S          0.00000   0.00000   0.00000   0.00000   0.17522
   5        5PX         0.00000  -0.68659   0.00000   0.11892   0.00000
   6        5PY        -0.68659   0.00000   0.11892   0.00000   0.00000
   7        5PZ         0.00000   0.00000   0.00000   0.00000  -1.13282
   8        6PX         0.00000   0.78629   0.00000   2.87391   0.00000
   9        6PY         0.78629   0.00000   2.87391   0.00000   0.00000
  10        6PZ         0.00000   0.00000   0.00000   0.00000   1.25583
  11        7PX         0.00000  -0.29607   0.00000   1.25053   0.00000
  12        7PY        -0.29607   0.00000   1.25053   0.00000   0.00000
  13        7PZ         0.00000   0.00000   0.00000   0.00000  -0.12334
  14        8D 0        0.00000   0.00000   0.00000   0.00000   0.06699
  15        8D+1        0.00000   0.25335   0.00000  -0.14351   0.00000
  16        8D-1        0.25335   0.00000  -0.14351   0.00000   0.00000
  17        8D+2        0.00000   0.00000   0.00000   0.00000   0.00000
  18        8D-2        0.00000   0.00000   0.00000   0.00000   0.00000
  19        9D 0        0.00000   0.00000   0.00000   0.00000  -0.52302
  20        9D+1        0.00000  -0.03341   0.00000  -2.46580   0.00000
  21        9D-1       -0.03341   0.00000  -2.46580   0.00000   0.00000
  22        9D+2        0.00000   0.00000   0.00000   0.00000  -0.00000
  23        9D-2        0.00000   0.00000   0.00000   0.00000   0.00000
  24       10F 0        0.00000   0.00000   0.00000   0.00000  -0.02859
  25       10F+1        0.00000  -0.37592   0.00000   1.32250   0.00000
  26       10F-1       -0.37592   0.00000   1.32250   0.00000   0.00000
  27       10F+2        0.00000   0.00000   0.00000   0.00000   0.00000
  28       10F-2        0.00000   0.00000   0.00000   0.00000   0.00000
  29       10F+3        0.00000  -0.00000   0.00000   0.00000   0.00000
  30       10F-3        0.00000   0.00000  -0.00000   0.00000   0.00000
  31 2   H  1S          0.00000   0.00000   0.00000   0.00000  -0.23677
  32        2S          0.00000   0.00000   0.00000   0.00000   1.07854
  33        3S          0.00000   0.00000   0.00000   0.00000  -0.72779
  34        4S          0.00000   0.00000   0.00000   0.00000   0.17522
  35        5PX         0.00000  -0.68659   0.00000  -0.11892   0.00000
  36        5PY        -0.68659   0.00000  -0.11892   0.00000   0.00000
  37        5PZ         0.00000   0.00000   0.00000   0.00000   1.13282
  38        6PX         0.00000   0.78629   0.00000  -2.87391   0.00000
  39        6PY         0.78629   0.00000  -2.87391   0.00000   0.00000
  40        6PZ         0.00000   0.00000   0.00000   0.00000  -1.25583
  41        7PX         0.00000  -0.29607   0.00000  -1.25053   0.00000
  42        7PY        -0.29607   0.00000  -1.25053   0.00000   0.00000
  43        7PZ         0.00000   0.00000   0.00000   0.00000   0.12334
  44        8D 0        0.00000   0.00000   0.00000   0.00000   0.06699
  45        8D+1        0.00000  -0.25335   0.00000  -0.14351   0.00000
  46        8D-1       -0.25335   0.00000  -0.14351   0.00000   0.00000
  47        8D+2        0.00000   0.00000   0.00000   0.00000   0.00000
  48        8D-2        0.00000   0.00000   0.00000   0.00000   0.00000
  49        9D 0        0.00000   0.00000   0.00000   0.00000  -0.52302
  50        9D+1        0.00000   0.03341   0.00000  -2.46580   0.00000
  51        9D-1        0.03341   0.00000  -2.46580   0.00000   0.00000
  52        9D+2        0.00000   0.00000   0.00000   0.00000  -0.00000
  53        9D-2        0.00000   0.00000   0.00000   0.00000   0.00000
  54       10F 0        0.00000   0.00000   0.00000   0.00000   0.02859
  55       10F+1        0.00000  -0.37592   0.00000  -1.32250   0.00000
  56       10F-1       -0.37592   0.00000  -1.32250   0.00000   0.00000
  57       10F+2        0.00000   0.00000   0.00000   0.00000  -0.00000
  58       10F-2        0.00000   0.00000   0.00000   0.00000   0.00000
  59       10F+3        0.00000  -0.00000   0.00000  -0.00000   0.00000
  60       10F-3        0.00000   0.00000   0.00000   0.00000   0.00000
                          41        42        43        44        45
                       (DLTU)--  (DLTU)--  (SGU)--V  (DLTG)--  (DLTG)--
     Eigenvalues --     7.31334   7.31334   7.45518   7.63455   7.63455
   1 1   H  1S          0.00000   0.00000  -0.23866   0.00000  -0.00000
   2        2S          0.00000  -0.00000   6.78369   0.00000  -0.00000
   3        3S          0.00000  -0.00000   7.99725   0.00000   0.00000
   4        4S          0.00000   0.00000  -0.27751   0.00000  -0.00000
   5        5PX         0.00000   0.00000   0.00000   0.00000   0.00000
   6        5PY         0.00000   0.00000   0.00000   0.00000   0.00000
   7        5PZ         0.00000  -0.00000  -0.27249   0.00000   0.00000
   8        6PX         0.00000   0.00000   0.00000   0.00000   0.00000
   9        6PY         0.00000   0.00000   0.00000   0.00000   0.00000
  10        6PZ         0.00000   0.00000  -4.29794   0.00000  -0.00000
  11        7PX         0.00000   0.00000   0.00000   0.00000   0.00000
  12        7PY         0.00000   0.00000   0.00000   0.00000   0.00000
  13        7PZ         0.00000   0.00000  -3.18017   0.00000  -0.00000
  14        8D 0        0.00000  -0.00000   0.38516   0.00000  -0.00000
  15        8D+1        0.00000   0.00000   0.00000   0.00000   0.00000
  16        8D-1        0.00000   0.00000   0.00000   0.00000   0.00000
  17        8D+2        0.00000   0.36781   0.00000   0.00000   0.84063
  18        8D-2        0.36781   0.00000   0.00000   0.84063   0.00000
  19        9D 0        0.00000  -0.00000   1.94201   0.00000   0.00000
  20        9D+1        0.00000   0.00000   0.00000   0.00000   0.00000
  21        9D-1        0.00000   0.00000   0.00000   0.00000   0.00000
  22        9D+2        0.00000  -0.92986  -0.00000   0.00000  -0.34217
  23        9D-2       -0.92986   0.00000   0.00000  -0.34217   0.00000
  24       10F 0        0.00000   0.00000  -1.29870   0.00000  -0.00000
  25       10F+1        0.00000   0.00000   0.00000   0.00000   0.00000
  26       10F-1        0.00000   0.00000   0.00000   0.00000   0.00000
  27       10F+2        0.00000   1.05609  -0.00000   0.00000   0.19936
  28       10F-2        1.05609   0.00000   0.00000   0.19936   0.00000
  29       10F+3        0.00000   0.00000   0.00000   0.00000   0.00000
  30       10F-3        0.00000   0.00000   0.00000   0.00000   0.00000
  31 2   H  1S          0.00000  -0.00000   0.23866   0.00000  -0.00000
  32        2S          0.00000   0.00000  -6.78369   0.00000  -0.00000
  33        3S          0.00000   0.00000  -7.99725   0.00000   0.00000
  34        4S          0.00000  -0.00000   0.27751   0.00000  -0.00000
  35        5PX         0.00000   0.00000   0.00000   0.00000   0.00000
  36        5PY         0.00000   0.00000   0.00000   0.00000   0.00000
  37        5PZ         0.00000  -0.00000  -0.27249   0.00000  -0.00000
  38        6PX         0.00000   0.00000   0.00000   0.00000   0.00000
  39        6PY         0.00000   0.00000   0.00000   0.00000   0.00000
  40        6PZ         0.00000   0.00000  -4.29794   0.00000   0.00000
  41        7PX         0.00000   0.00000   0.00000   0.00000   0.00000
  42        7PY         0.00000   0.00000   0.00000   0.00000   0.00000
  43        7PZ         0.00000   0.00000  -3.18017   0.00000   0.00000
  44        8D 0        0.00000   0.00000  -0.38516   0.00000  -0.00000
  45        8D+1        0.00000   0.00000   0.00000   0.00000   0.00000
  46        8D-1        0.00000   0.00000   0.00000   0.00000   0.00000
  47        8D+2        0.00000  -0.36781  -0.00000   0.00000   0.84063
  48        8D-2       -0.36781   0.00000   0.00000   0.84063   0.00000
  49        9D 0        0.00000   0.00000  -1.94201   0.00000   0.00000
  50        9D+1        0.00000   0.00000   0.00000   0.00000   0.00000
  51        9D-1        0.00000   0.00000   0.00000   0.00000   0.00000
  52        9D+2        0.00000   0.92986   0.00000   0.00000  -0.34217
  53        9D-2        0.92986   0.00000   0.00000  -0.34217   0.00000
  54       10F 0        0.00000   0.00000  -1.29870   0.00000   0.00000
  55       10F+1        0.00000   0.00000   0.00000   0.00000   0.00000
  56       10F-1        0.00000   0.00000   0.00000   0.00000   0.00000
  57       10F+2        0.00000   1.05609  -0.00000   0.00000  -0.19936
  58       10F-2        1.05609   0.00000   0.00000  -0.19936   0.00000
  59       10F+3        0.00000   0.00000   0.00000   0.00000   0.00000
  60       10F-3        0.00000   0.00000   0.00000   0.00000   0.00000
                          46        47        48        49        50
                       (PIU)--V  (PIU)--V  (SGU)--V  (PIG)--V  (PIG)--V
     Eigenvalues --     7.63656   7.63656   7.89550   8.00489   8.00489
   1 1   H  1S          0.00000   0.00000  -0.25641   0.00000   0.00000
   2        2S          0.00000   0.00000  -0.68857   0.00000   0.00000
   3        3S          0.00000   0.00000   4.70847   0.00000   0.00000
   4        4S          0.00000   0.00000   0.45483   0.00000   0.00000
   5        5PX         0.32737   0.00000   0.00000   0.00000  -1.28843
   6        5PY         0.00000   0.32737   0.00000  -1.28843   0.00000
   7        5PZ         0.00000   0.00000  -0.72408   0.00000   0.00000
   8        6PX        -0.53238   0.00000   0.00000   0.00000   3.11205
   9        6PY         0.00000  -0.53238   0.00000   3.11205   0.00000
  10        6PZ         0.00000   0.00000   1.73528   0.00000   0.00000
  11        7PX         0.15959   0.00000   0.00000   0.00000   0.14532
  12        7PY         0.00000   0.15959   0.00000   0.14532   0.00000
  13        7PZ         0.00000   0.00000  -2.44434   0.00000   0.00000
  14        8D 0        0.00000   0.00000  -0.76520   0.00000   0.00000
  15        8D+1        0.80584   0.00000   0.00000   0.00000  -0.23472
  16        8D-1        0.00000   0.80584   0.00000  -0.23472   0.00000
  17        8D+2        0.00000   0.00000  -0.00000   0.00000   0.00000
  18        8D-2        0.00000   0.00000   0.00000   0.00000   0.00000
  19        9D 0        0.00000   0.00000   0.35757   0.00000   0.00000
  20        9D+1       -0.62030   0.00000   0.00000   0.00000  -1.51460
  21        9D-1        0.00000  -0.62030   0.00000  -1.51460   0.00000
  22        9D+2        0.00000   0.00000   0.00000   0.00000   0.00000
  23        9D-2        0.00000   0.00000   0.00000   0.00000   0.00000
  24       10F 0        0.00000   0.00000   0.07371   0.00000   0.00000
  25       10F+1        0.42289   0.00000   0.00000   0.00000   0.50714
  26       10F-1        0.00000   0.42289   0.00000   0.50714   0.00000
  27       10F+2        0.00000   0.00000  -0.00000   0.00000   0.00000
  28       10F-2        0.00000   0.00000   0.00000   0.00000   0.00000
  29       10F+3        0.00000   0.00000   0.00000   0.00000  -0.00000
  30       10F-3        0.00000  -0.00000   0.00000   0.00000   0.00000
  31 2   H  1S          0.00000   0.00000   0.25641   0.00000   0.00000
  32        2S          0.00000   0.00000   0.68857   0.00000   0.00000
  33        3S          0.00000   0.00000  -4.70847   0.00000   0.00000
  34        4S          0.00000   0.00000  -0.45483   0.00000   0.00000
  35        5PX         0.32737   0.00000   0.00000   0.00000   1.28843
  36        5PY         0.00000   0.32737   0.00000   1.28843   0.00000
  37        5PZ         0.00000   0.00000  -0.72408   0.00000   0.00000
  38        6PX        -0.53238   0.00000   0.00000   0.00000  -3.11205
  39        6PY         0.00000  -0.53238   0.00000  -3.11205   0.00000
  40        6PZ         0.00000   0.00000   1.73528   0.00000   0.00000
  41        7PX         0.15959   0.00000   0.00000   0.00000  -0.14532
  42        7PY         0.00000   0.15959   0.00000  -0.14532   0.00000
  43        7PZ         0.00000   0.00000  -2.44434   0.00000   0.00000
  44        8D 0        0.00000   0.00000   0.76520   0.00000   0.00000
  45        8D+1       -0.80584   0.00000   0.00000   0.00000  -0.23472
  46        8D-1        0.00000  -0.80584   0.00000  -0.23472   0.00000
  47        8D+2        0.00000   0.00000   0.00000   0.00000   0.00000
  48        8D-2        0.00000   0.00000   0.00000   0.00000   0.00000
  49        9D 0        0.00000   0.00000  -0.35757   0.00000   0.00000
  50        9D+1        0.62030   0.00000   0.00000   0.00000  -1.51460
  51        9D-1        0.00000   0.62030   0.00000  -1.51460   0.00000
  52        9D+2        0.00000   0.00000  -0.00000   0.00000   0.00000
  53        9D-2        0.00000   0.00000   0.00000   0.00000   0.00000
  54       10F 0        0.00000   0.00000   0.07371   0.00000   0.00000
  55       10F+1        0.42289   0.00000   0.00000   0.00000  -0.50714
  56       10F-1        0.00000   0.42289   0.00000  -0.50714   0.00000
  57       10F+2        0.00000   0.00000  -0.00000   0.00000   0.00000
  58       10F-2        0.00000   0.00000   0.00000   0.00000   0.00000
  59       10F+3        0.00000   0.00000   0.00000   0.00000   0.00000
  60       10F-3        0.00000  -0.00000   0.00000  -0.00000   0.00000
                          51        52        53        54        55
                       (SGG)--V  (PIU)--V  (PIU)--V  (DLTU)--  (DLTU)--
     Eigenvalues --     8.16490   8.47026   8.47026   8.84610   8.84610
   1 1   H  1S         -0.61508   0.00000   0.00000   0.00000  -0.00000
   2        2S         -0.86965   0.00000   0.00000   0.00000   0.00000
   3        3S          0.41379   0.00000   0.00000   0.00000  -0.00000
   4        4S          0.02991   0.00000   0.00000   0.00000   0.00000
   5        5PX         0.00000   0.96201   0.00000   0.00000   0.00000
   6        5PY         0.00000   0.00000   0.96201   0.00000   0.00000
   7        5PZ         0.22038   0.00000   0.00000   0.00000   0.00000
   8        6PX         0.00000  -0.43358   0.00000   0.00000   0.00000
   9        6PY         0.00000   0.00000  -0.43358   0.00000   0.00000
  10        6PZ        -0.49101   0.00000   0.00000   0.00000  -0.00000
  11        7PX         0.00000   0.09386   0.00000   0.00000   0.00000
  12        7PY         0.00000   0.00000   0.09386   0.00000   0.00000
  13        7PZ        -0.89945   0.00000   0.00000   0.00000   0.00000
  14        8D 0       -0.73180   0.00000   0.00000   0.00000   0.00000
  15        8D+1        0.00000  -0.17633   0.00000   0.00000   0.00000
  16        8D-1        0.00000   0.00000  -0.17633   0.00000   0.00000
  17        8D+2       -0.00000   0.00000   0.00000   0.00000   0.86655
  18        8D-2        0.00000   0.00000   0.00000   0.86655   0.00000
  19        9D 0        1.36840   0.00000   0.00000   0.00000  -0.00000
  20        9D+1        0.00000   0.31213   0.00000   0.00000   0.00000
  21        9D-1        0.00000   0.00000   0.31213   0.00000   0.00000
  22        9D+2        0.00000   0.00000   0.00000   0.00000  -0.02020
  23        9D-2        0.00000   0.00000   0.00000  -0.02020   0.00000
  24       10F 0       -0.43011   0.00000   0.00000   0.00000   0.00000
  25       10F+1        0.00000  -0.80051   0.00000   0.00000   0.00000
  26       10F-1        0.00000   0.00000  -0.80051   0.00000   0.00000
  27       10F+2       -0.00000   0.00000   0.00000   0.00000  -0.78201
  28       10F-2        0.00000   0.00000   0.00000  -0.78201   0.00000
  29       10F+3        0.00000   0.00000   0.00000   0.00000   0.00000
  30       10F-3        0.00000   0.00000  -0.00000   0.00000   0.00000
  31 2   H  1S         -0.61508   0.00000   0.00000   0.00000   0.00000
  32        2S         -0.86965   0.00000   0.00000   0.00000  -0.00000
  33        3S          0.41379   0.00000   0.00000   0.00000   0.00000
  34        4S          0.02991   0.00000   0.00000   0.00000  -0.00000
  35        5PX         0.00000   0.96201   0.00000   0.00000   0.00000
  36        5PY         0.00000   0.00000   0.96201   0.00000   0.00000
  37        5PZ        -0.22038   0.00000   0.00000   0.00000   0.00000
  38        6PX         0.00000  -0.43358   0.00000   0.00000   0.00000
  39        6PY         0.00000   0.00000  -0.43358   0.00000   0.00000
  40        6PZ         0.49101   0.00000   0.00000   0.00000  -0.00000
  41        7PX         0.00000   0.09386   0.00000   0.00000   0.00000
  42        7PY         0.00000   0.00000   0.09386   0.00000   0.00000
  43        7PZ         0.89945   0.00000   0.00000   0.00000   0.00000
  44        8D 0       -0.73180   0.00000   0.00000   0.00000  -0.00000
  45        8D+1        0.00000   0.17633   0.00000   0.00000   0.00000
  46        8D-1        0.00000   0.00000   0.17633   0.00000   0.00000
  47        8D+2       -0.00000   0.00000   0.00000   0.00000  -0.86655
  48        8D-2        0.00000   0.00000   0.00000  -0.86655   0.00000
  49        9D 0        1.36840   0.00000   0.00000   0.00000   0.00000
  50        9D+1        0.00000  -0.31213   0.00000   0.00000   0.00000
  51        9D-1        0.00000   0.00000  -0.31213   0.00000   0.00000
  52        9D+2        0.00000   0.00000   0.00000   0.00000   0.02020
  53        9D-2        0.00000   0.00000   0.00000   0.02020   0.00000
  54       10F 0        0.43011   0.00000   0.00000   0.00000   0.00000
  55       10F+1        0.00000  -0.80051   0.00000   0.00000   0.00000
  56       10F-1        0.00000   0.00000  -0.80051   0.00000   0.00000
  57       10F+2        0.00000   0.00000   0.00000   0.00000  -0.78201
  58       10F-2        0.00000   0.00000   0.00000  -0.78201   0.00000
  59       10F+3        0.00000   0.00000   0.00000   0.00000   0.00000
  60       10F-3        0.00000   0.00000  -0.00000   0.00000   0.00000
                          56        57        58        59        60
                       (SGU)--V  (PIG)--V  (PIG)--V  (SGG)--V  (SGU)--V
     Eigenvalues --    10.01505  12.36397  12.36397  12.54881  15.64387
   1 1   H  1S         -1.33069   0.00000   0.00000   1.37321  -1.37612
   2        2S          5.89195   0.00000   0.00000   0.89650  14.19489
   3        3S          6.94376   0.00000   0.00000  -0.83212   8.24208
   4        4S         -0.47286   0.00000   0.00000   0.13918  -0.54258
   5        5PX         0.00000   0.07272   0.00000   0.00000   0.00000
   6        5PY         0.00000   0.00000   0.07272   0.00000   0.00000
   7        5PZ         0.89419   0.00000   0.00000  -1.39367  -1.39116
   8        6PX         0.00000   3.26030   0.00000   0.00000   0.00000
   9        6PY         0.00000   0.00000   3.26030   0.00000   0.00000
  10        6PZ        -4.28958   0.00000   0.00000   1.82240  -9.14610
  11        7PX         0.00000   0.46173   0.00000   0.00000   0.00000
  12        7PY         0.00000   0.00000   0.46173   0.00000   0.00000
  13        7PZ        -2.50470   0.00000   0.00000   0.39442  -3.00539
  14        8D 0       -0.14964   0.00000   0.00000  -0.46891   2.37979
  15        8D+1        0.00000  -1.76222   0.00000   0.00000   0.00000
  16        8D-1        0.00000   0.00000  -1.76222   0.00000   0.00000
  17        8D+2       -0.00000   0.00000   0.00000  -0.00000  -0.00000
  18        8D-2        0.00000   0.00000   0.00000   0.00000   0.00000
  19        9D 0        1.34760   0.00000   0.00000  -1.18244   2.42964
  20        9D+1        0.00000  -1.71647   0.00000   0.00000   0.00000
  21        9D-1        0.00000   0.00000  -1.71647   0.00000   0.00000
  22        9D+2        0.00000   0.00000   0.00000   0.00000   0.00000
  23        9D-2        0.00000   0.00000   0.00000   0.00000   0.00000
  24       10F 0        0.18286   0.00000   0.00000   0.83537  -0.88412
  25       10F+1        0.00000   1.35586   0.00000   0.00000   0.00000
  26       10F-1        0.00000   0.00000   1.35586   0.00000   0.00000
  27       10F+2        0.00000   0.00000   0.00000  -0.00000   0.00000
  28       10F-2        0.00000   0.00000   0.00000   0.00000   0.00000
  29       10F+3        0.00000   0.00000   0.00000   0.00000   0.00000
  30       10F-3        0.00000   0.00000  -0.00000   0.00000   0.00000
  31 2   H  1S          1.33069   0.00000   0.00000   1.37321   1.37612
  32        2S         -5.89195   0.00000   0.00000   0.89650 -14.19489
  33        3S         -6.94376   0.00000   0.00000  -0.83212  -8.24208
  34        4S          0.47286   0.00000   0.00000   0.13918   0.54258
  35        5PX         0.00000  -0.07272   0.00000   0.00000   0.00000
  36        5PY         0.00000   0.00000  -0.07272   0.00000   0.00000
  37        5PZ         0.89419   0.00000   0.00000   1.39367  -1.39116
  38        6PX         0.00000  -3.26030   0.00000   0.00000   0.00000
  39        6PY         0.00000   0.00000  -3.26030   0.00000   0.00000
  40        6PZ        -4.28958   0.00000   0.00000  -1.82240  -9.14610
  41        7PX         0.00000  -0.46173   0.00000   0.00000   0.00000
  42        7PY         0.00000   0.00000  -0.46173   0.00000   0.00000
  43        7PZ        -2.50470   0.00000   0.00000  -0.39442  -3.00539
  44        8D 0        0.14964   0.00000   0.00000  -0.46891  -2.37979
  45        8D+1        0.00000  -1.76222   0.00000   0.00000   0.00000
  46        8D-1        0.00000   0.00000  -1.76222   0.00000   0.00000
  47        8D+2        0.00000   0.00000   0.00000  -0.00000   0.00000
  48        8D-2        0.00000   0.00000   0.00000   0.00000   0.00000
  49        9D 0       -1.34760   0.00000   0.00000  -1.18244  -2.42964
  50        9D+1        0.00000  -1.71647   0.00000   0.00000   0.00000
  51        9D-1        0.00000   0.00000  -1.71647   0.00000   0.00000
  52        9D+2       -0.00000   0.00000   0.00000   0.00000  -0.00000
  53        9D-2        0.00000   0.00000   0.00000   0.00000   0.00000
  54       10F 0        0.18286   0.00000   0.00000  -0.83537  -0.88412
  55       10F+1        0.00000  -1.35586   0.00000   0.00000   0.00000
  56       10F-1        0.00000   0.00000  -1.35586   0.00000   0.00000
  57       10F+2        0.00000   0.00000   0.00000   0.00000   0.00000
  58       10F-2        0.00000   0.00000   0.00000   0.00000   0.00000
  59       10F+3        0.00000  -0.00000   0.00000   0.00000   0.00000
  60       10F-3        0.00000   0.00000   0.00000   0.00000   0.00000
     Density Matrix:
                           1         2         3         4         5
   1 1   H  1S          0.01163
   2        2S          0.02887   0.07170
   3        3S          0.03797   0.09428   0.12398
   4        4S          0.01600   0.03973   0.05224   0.02201
   5        5PX        -0.00000  -0.00000  -0.00000  -0.00000   0.00000
   6        5PY        -0.00000  -0.00000  -0.00000  -0.00000   0.00000
   7        5PZ        -0.00079  -0.00196  -0.00258  -0.00109   0.00000
   8        6PX        -0.00000  -0.00000  -0.00000  -0.00000   0.00000
   9        6PY        -0.00000  -0.00000  -0.00000  -0.00000   0.00000
  10        6PZ        -0.00156  -0.00386  -0.00508  -0.00214   0.00000
  11        7PX        -0.00000  -0.00000  -0.00000  -0.00000   0.00000
  12        7PY        -0.00000  -0.00000  -0.00000  -0.00000   0.00000
  13        7PZ        -0.00164  -0.00408  -0.00537  -0.00226   0.00000
  14        8D 0        0.00023   0.00057   0.00075   0.00032  -0.00000
  15        8D+1        0.00000   0.00000   0.00000   0.00000  -0.00000
  16        8D-1        0.00000   0.00000   0.00000   0.00000   0.00000
  17        8D+2        0.00000   0.00000   0.00000   0.00000  -0.00000
  18        8D-2        0.00000   0.00000   0.00000   0.00000   0.00000
  19        9D 0        0.00014   0.00036   0.00047   0.00020  -0.00000
  20        9D+1        0.00000   0.00000   0.00000   0.00000  -0.00000
  21        9D-1        0.00000   0.00000   0.00000   0.00000   0.00000
  22        9D+2        0.00000   0.00000   0.00000   0.00000  -0.00000
  23        9D-2        0.00000   0.00000   0.00000   0.00000   0.00000
  24       10F 0       -0.00005  -0.00013  -0.00017  -0.00007   0.00000
  25       10F+1       -0.00000  -0.00000  -0.00000  -0.00000   0.00000
  26       10F-1       -0.00000  -0.00000  -0.00000  -0.00000   0.00000
  27       10F+2        0.00000   0.00000   0.00000   0.00000  -0.00000
  28       10F-2        0.00000   0.00000   0.00000   0.00000   0.00000
  29       10F+3        0.00000   0.00000   0.00000   0.00000  -0.00000
  30       10F-3        0.00000   0.00000   0.00000   0.00000   0.00000
  31 2   H  1S          0.01163   0.02887   0.03797   0.01600  -0.00000
  32        2S          0.02887   0.07170   0.09428   0.03973  -0.00000
  33        3S          0.03797   0.09428   0.12398   0.05224  -0.00000
  34        4S          0.01600   0.03973   0.05224   0.02201  -0.00000
  35        5PX         0.00000   0.00000   0.00000   0.00000  -0.00000
  36        5PY         0.00000   0.00000   0.00000   0.00000   0.00000
  37        5PZ         0.00079   0.00196   0.00258   0.00109  -0.00000
  38        6PX         0.00000   0.00000   0.00000   0.00000  -0.00000
  39        6PY         0.00000   0.00000   0.00000   0.00000   0.00000
  40        6PZ         0.00156   0.00386   0.00508   0.00214  -0.00000
  41        7PX         0.00000   0.00000   0.00000   0.00000  -0.00000
  42        7PY         0.00000   0.00000   0.00000   0.00000   0.00000
  43        7PZ         0.00164   0.00408   0.00537   0.00226  -0.00000
  44        8D 0        0.00023   0.00057   0.00075   0.00032  -0.00000
  45        8D+1        0.00000   0.00000   0.00000   0.00000  -0.00000
  46        8D-1        0.00000   0.00000   0.00000   0.00000   0.00000
  47        8D+2        0.00000   0.00000   0.00000   0.00000  -0.00000
  48        8D-2        0.00000   0.00000   0.00000   0.00000   0.00000
  49        9D 0        0.00014   0.00036   0.00047   0.00020  -0.00000
  50        9D+1        0.00000   0.00000   0.00000   0.00000  -0.00000
  51        9D-1        0.00000   0.00000   0.00000   0.00000   0.00000
  52        9D+2        0.00000   0.00000   0.00000   0.00000  -0.00000
  53        9D-2        0.00000   0.00000   0.00000   0.00000   0.00000
  54       10F 0        0.00005   0.00013   0.00017   0.00007  -0.00000
  55       10F+1        0.00000   0.00000   0.00000   0.00000  -0.00000
  56       10F-1        0.00000   0.00000   0.00000   0.00000   0.00000
  57       10F+2       -0.00000  -0.00000  -0.00000  -0.00000   0.00000
  58       10F-2        0.00000   0.00000   0.00000   0.00000   0.00000
  59       10F+3       -0.00000  -0.00000  -0.00000  -0.00000   0.00000
  60       10F-3       -0.00000  -0.00000  -0.00000  -0.00000   0.00000
                           6         7         8         9        10
   6        5PY         0.00000
   7        5PZ         0.00000   0.00005
   8        6PX         0.00000   0.00000   0.00000
   9        6PY         0.00000   0.00000   0.00000   0.00000
  10        6PZ         0.00000   0.00011   0.00000   0.00000   0.00021
  11        7PX         0.00000   0.00000   0.00000   0.00000   0.00000
  12        7PY         0.00000   0.00000   0.00000   0.00000   0.00000
  13        7PZ         0.00000   0.00011   0.00000   0.00000   0.00022
  14        8D 0       -0.00000  -0.00002  -0.00000  -0.00000  -0.00003
  15        8D+1       -0.00000  -0.00000  -0.00000  -0.00000  -0.00000
  16        8D-1       -0.00000  -0.00000   0.00000  -0.00000  -0.00000
  17        8D+2       -0.00000  -0.00000  -0.00000  -0.00000  -0.00000
  18        8D-2        0.00000   0.00000   0.00000   0.00000   0.00000
  19        9D 0       -0.00000  -0.00001  -0.00000  -0.00000  -0.00002
  20        9D+1       -0.00000  -0.00000  -0.00000  -0.00000  -0.00000
  21        9D-1       -0.00000  -0.00000   0.00000  -0.00000  -0.00000
  22        9D+2       -0.00000  -0.00000  -0.00000  -0.00000  -0.00000
  23        9D-2        0.00000   0.00000   0.00000   0.00000   0.00000
  24       10F 0        0.00000   0.00000   0.00000   0.00000   0.00001
  25       10F+1        0.00000   0.00000   0.00000   0.00000   0.00000
  26       10F-1        0.00000   0.00000   0.00000   0.00000   0.00000
  27       10F+2       -0.00000  -0.00000  -0.00000  -0.00000  -0.00000
  28       10F-2        0.00000   0.00000   0.00000   0.00000   0.00000
  29       10F+3       -0.00000  -0.00000  -0.00000  -0.00000  -0.00000
  30       10F-3       -0.00000  -0.00000   0.00000  -0.00000  -0.00000
  31 2   H  1S         -0.00000  -0.00079  -0.00000  -0.00000  -0.00156
  32        2S         -0.00000  -0.00196  -0.00000  -0.00000  -0.00386
  33        3S         -0.00000  -0.00258  -0.00000  -0.00000  -0.00508
  34        4S         -0.00000  -0.00109  -0.00000  -0.00000  -0.00214
[...]
  55       10F+1       -0.00000   0.00000   0.00000   0.00000   0.00000
  56       10F-1        0.00000  -0.00000   0.00000   0.00000   0.00000
  57       10F+2        0.00000   0.00000   0.00000   0.00000   0.00000
  58       10F-2        0.00000   0.00000   0.00000   0.00000   0.00000
  59       10F+3       -0.00000   0.00000   0.00000   0.00000   0.00000
  60       10F-3        0.00000   0.00000   0.00000   0.00000   0.00000
                          46        47        48        49        50
  46        8D-1        0.00000
  47        8D+2        0.00000   0.00000
  48        8D-2        0.00000   0.00000   0.00000
  49        9D 0        0.00000   0.00000   0.00000   0.00000
  50        9D+1        0.00000   0.00000   0.00000   0.00000   0.00000
  51        9D-1        0.00000   0.00000   0.00000   0.00000   0.00000
  52        9D+2        0.00000   0.00000   0.00000   0.00000   0.00000
  53        9D-2        0.00000   0.00000   0.00000   0.00000   0.00000
  54       10F 0        0.00000   0.00000   0.00000   0.00000   0.00000
  55       10F+1        0.00000   0.00000   0.00000   0.00000   0.00000
  56       10F-1        0.00000   0.00000   0.00000   0.00000   0.00000
  57       10F+2        0.00000   0.00000   0.00000   0.00000   0.00000
  58       10F-2        0.00000   0.00000   0.00000   0.00000   0.00000
  59       10F+3        0.00000   0.00000   0.00000   0.00000   0.00000
  60       10F-3        0.00000   0.00000   0.00000   0.00000   0.00000
                          51        52        53        54        55
  51        9D-1        0.00000
  52        9D+2        0.00000  -0.00000
  53        9D-2        0.00000   0.00000   0.00000
  54       10F 0        0.00000   0.00000   0.00000   0.00000
  55       10F+1        0.00000   0.00000   0.00000   0.00000   0.00000
  56       10F-1        0.00000   0.00000   0.00000   0.00000   0.00000
  57       10F+2        0.00000   0.00000   0.00000   0.00000   0.00000
  58       10F-2        0.00000   0.00000   0.00000   0.00000   0.00000
  59       10F+3        0.00000   0.00000   0.00000   0.00000   0.00000
  60       10F-3        0.00000   0.00000   0.00000   0.00000   0.00000
                          56        57        58        59        60
  56       10F-1        0.00000
  57       10F+2        0.00000  -0.00000
  58       10F-2        0.00000   0.00000  -0.00000
  59       10F+3        0.00000   0.00000   0.00000  -0.00000
  60       10F-3       -0.00000   0.00000   0.00000   0.00000  -0.00000
     Gross orbital populations:
                           1
   1 1   H  1S          0.06934
   2        2S          0.29712
   3        3S          0.45592
   4        4S          0.16381
   5        5PX         0.00000
   6        5PY         0.00000
   7        5PZ         0.00127
   8        6PX         0.00000
   9        6PY         0.00000
  10        6PZ         0.00514
  11        7PX         0.00000
  12        7PY         0.00000
  13        7PZ         0.00684
  14        8D 0        0.00022
  15        8D+1        0.00000
  16        8D-1        0.00000
  17        8D+2        0.00000
  18        8D-2        0.00000
  19        9D 0        0.00029
  20        9D+1        0.00000
  21        9D-1        0.00000
  22        9D+2       -0.00000
  23        9D-2        0.00000
  24       10F 0        0.00004
  25       10F+1        0.00000
  26       10F-1        0.00000
  27       10F+2       -0.00000
  28       10F-2       -0.00000
  29       10F+3       -0.00000
  30       10F-3       -0.00000
  31 2   H  1S          0.06934
  32        2S          0.29712
  33        3S          0.45592
  34        4S          0.16381
  35        5PX         0.00000
  36        5PY         0.00000
  37        5PZ         0.00127
  38        6PX         0.00000
  39        6PY         0.00000
  40        6PZ         0.00514
  41        7PX         0.00000
  42        7PY         0.00000
  43        7PZ         0.00684
  44        8D 0        0.00022
  45        8D+1       -0.00000
  46        8D-1       -0.00000
  47        8D+2        0.00000
  48        8D-2        0.00000
  49        9D 0        0.00029
  50        9D+1       -0.00000
  51        9D-1       -0.00000
  52        9D+2       -0.00000
  53        9D-2        0.00000
  54       10F 0        0.00004
  55       10F+1       -0.00000
  56       10F-1       -0.00000
  57       10F+2       -0.00000
  58       10F-2       -0.00000
  59       10F+3       -0.00000
  60       10F-3       -0.00000
          Condensed to atoms (all electrons):
              1          2
     1  H    0.580012   0.419988
     2  H    0.419988   0.580012
 Mulliken atomic charges:
              1
     1  H   -0.000000
     2  H    0.000000
 Sum of Mulliken atomic charges =  -0.00000
 Mulliken charges with hydrogens summed into heavy atoms:
              1
 Sum of Mulliken charges with hydrogens summed into heavy atoms =  -0.00000
 APT atomic charges:
              1
     1  H   -0.000000
     2  H   -0.000000
 Sum of APT charges=  -0.00000
 APT Atomic charges with hydrogens summed into heavy atoms:
              1
     1  H   -0.000000
     2  H   -0.000000
 Sum of APT charges=  -0.00000
 Electronic spatial extent (au):  <R**2>=              5.2433
 Charge=              0.0000 electrons
 Dipole moment (field-independent basis, Debye):
    X=              0.0000    Y=              0.0000    Z=              0.0000  Tot=              0.0000
 Quadrupole moment (field-independent basis, Debye-Ang):
   XX=             -2.1050   YY=             -2.1050   ZZ=             -1.5205
   XY=             -0.0000   XZ=             -0.0000   YZ=              0.0000
 Traceless Quadrupole moment (field-independent basis, Debye-Ang):
   XX=             -0.1948   YY=             -0.1948   ZZ=              0.3897
   XY=             -0.0000   XZ=             -0.0000   YZ=              0.0000
 Octapole moment (field-independent basis, Debye-Ang**2):
  XXX=             -0.0000  YYY=              0.0000  ZZZ=              0.0000  XYY=             -0.0000
  XXY=             -0.0000  XXZ=             -0.0000  XZZ=             -0.0000  YZZ=              0.0000
  YYZ=             -0.0000  XYZ=              0.0000
 Hexadecapole moment (field-independent basis, Debye-Ang**3):
 XXXX=             -2.1834 YYYY=             -2.1834 ZZZZ=             -2.9856 XXXY=             -0.0000
 XXXZ=              0.0000 YYYX=             -0.0000 YYYZ=              0.0000 ZZZX=              0.0000
 ZZZY=              0.0000 XXYY=             -0.7278 XXZZ=             -0.8784 YYZZ=             -0.8784
 XXYZ=              0.0000 YYXZ=              0.0000 ZZXY=             -0.0000
 N-N= 7.133027880379D-01 E-N=-3.645909855474D+00  KE= 1.142539768977D+00
 Symmetry AG   KE= 1.142539768977D+00
 Symmetry B1G  KE=-1.995793110037D-54
 Symmetry B2G  KE= 1.886430168551D-31
 Symmetry B3G  KE= 1.886430168551D-31
 Symmetry AU   KE= 1.055961600207D-54
 Symmetry B1U  KE= 6.838472050237D-23
 Symmetry B2U  KE= 8.249332247538D-34
 Symmetry B3U  KE= 8.249332247538D-34
 Orbital energies and kinetic energies (alpha):
                                 1                 2
   1 (SGG)--O                 -0.434520          0.571270
   2 (SGU)--V                  0.049427          0.297023
   3 (SGG)--V                  0.141572          0.388701
   4 (PIU)--V                  0.355582          0.634018
   5 (PIU)--V                  0.355582          0.634018
   6 (SGU)--V                  0.375186          0.837838
   7 (SGG)--V                  0.654588          0.886505
   8 (PIG)--V                  0.668922          0.865757
   9 (PIG)--V                  0.668922          0.865757
  10 (SGU)--V                  0.980513          1.131918
  11 (SGG)--V                  1.111262          1.714895
  12 (SGU)--V                  1.353558          2.159759
  13 (DLTG)--V                 1.714084          2.053576
  14 (DLTG)--V                 1.714084          2.053576
  15 (PIU)--V                  1.896135          2.446621
  16 (PIU)--V                  1.896135          2.446621
  17 (SGG)--V                  2.120005          2.617240
  18 (PIG)--V                  2.153590          2.523960
  19 (PIG)--V                  2.153590          2.523960
  20 (PIU)--V                  2.333297          2.676767
  21 (PIU)--V                  2.333297          2.676767
  22 (DLTU)--V                 2.336622          2.640097
  23 (DLTU)--V                 2.336622          2.640097
  24 (SGU)--V                  2.787371          3.164401
  25 (SGG)--V                  3.087071          3.637650
  26 (PIG)--V                  3.362599          3.801937
  27 (PIG)--V                  3.362599          3.801937
  28 (SGU)--V                  3.683209          4.753684
  29 (SGG)--V                  5.240244          6.428087
  30 (PHIU)--V                 5.397147          5.898783
  31 (PHIU)--V                 5.397147          5.898783
  32 (DLTG)--V                 5.906357          6.493176
  33 (DLTG)--V                 5.906357          6.493176
  34 (PHIG)--V                 6.447140          6.937386
  35 (PHIG)--V                 6.447140          6.937386
  36 (PIU)--V                  6.604507          7.597841
  37 (PIU)--V                  6.604507          7.597841
  38 (PIG)--V                  6.797618          7.337117
  39 (PIG)--V                  6.797618          7.337117
  40 (SGG)--V                  6.965700          8.284159
  41 (DLTU)--V                 7.316911          7.875879
  42 (DLTU)--V                 7.316911          7.875879
  43 (SGU)--V                  7.451872          7.985545
  44 (DLTG)--V                 7.635551          8.432919
  45 (DLTG)--V                 7.635551          8.432920
  46 (PIU)--V                  7.638092          8.467394
  47 (PIU)--V                  7.638092          8.467394
  48 (SGU)--V                  7.888673          9.055737
  49 (PIG)--V                  8.001983          9.170736
  50 (PIG)--V                  8.001983          9.170736
  51 (SGG)--V                  8.161111          9.300363
  52 (PIU)--V                  8.462597          9.303806
  53 (PIU)--V                  8.462597          9.303806
  54 (DLTU)--V                 8.834453          9.621464
  55 (DLTU)--V                 8.834455          9.621464
  56 (SGU)--V                 10.004926         12.540956
  57 (PIG)--V                 12.343796         13.302550
  58 (PIG)--V                 12.343796         13.302550
  59 (SGG)--V                 12.520593         15.005715
  60 (SGU)--V                 15.639343         17.459472
 Total kinetic energy from orbitals= 1.142539768977D+00
  Exact polarizability:   3.451   0.000   3.451   0.000  -0.000   6.811
 Approx polarizability:   3.635  -0.000   3.635  -0.000  -0.000   8.079
 No NMR shielding tensors so no spin-rotation constants.
 Leave Link  601 at Sun Aug 18 15:12:50 2024, MaxMem=   13107200 cpu:       0.2
 (Enter /programs/64bit/g09/g09-gfortran/bin/l701.exe)
 Compute integral second derivatives.
 ... and contract with generalized density number  0.
 Leave Link  701 at Sun Aug 18 15:12:50 2024, MaxMem=   13107200 cpu:       0.3
 (Enter /programs/64bit/g09/g09-gfortran/bin/l702.exe)
 L702 exits ... SP integral derivatives will be done elsewhere.
 Leave Link  702 at Sun Aug 18 15:12:50 2024, MaxMem=   13107200 cpu:       0.0
 (Enter /programs/64bit/g09/g09-gfortran/bin/l703.exe)
 Compute integral second derivatives, UseDBF=F ICtDFT=           0.
 Integral derivatives from FoFDir, PRISM(SPDF).
 Calling FoFJK, ICntrl=    100127 FMM=F ISym2X=1 I1Cent= 0 IOpClX= 0 NMat=1 NMatS=1 NMatT=0.
 FoFCou: FMM=F IPFlag=           0 FMFlag=      100000 FMFlg1=         800
         NFxFlg=           0 DoJE=F BraDBF=F KetDBF=F FulRan=T
         Omega=  0.000000  0.000000  1.000000  0.000000  0.000000 ICntrl=  100127 IOpCl=  0
         NMat0=    1 NMatS0=    1 NMatT0=    0 NMatD0=    1 NMtDS0=    0 NMtDT0=    0
         I1Cent=           0 NGrid=           0.
 Petite list used in FoFCou.
 Leave Link  703 at Sun Aug 18 15:12:54 2024, MaxMem=   13107200 cpu:       4.0
 (Enter /programs/64bit/g09/g09-gfortran/bin/l716.exe)
 Dipole        = 0.00000000D+00 3.12963616D-34 4.58478871D-17
 Polarizability= 3.45097442D+00 1.75113649D-11 3.45097442D+00
                 6.85534506D-11-1.21832760D-11 6.81110512D+00
 Full mass-weighted force constant matrix:
 Low frequencies ---  -45.8575  -45.8575   -0.0004   -0.0004   -0.0003 4416.3961
 Diagonal vibrational polarizability:
        0.0000000       0.0000000       0.0000000
 Harmonic frequencies (cm**-1), IR intensities (KM/Mole), Raman scattering
 activities (A**4/AMU), depolarization ratios for plane and unpolarized
 incident light, reduced masses (AMU), force constants (mDyne/A),
 and normal coordinates:
                     1
                    SGG
 Frequencies --  4416.3961
 Red. masses --     1.0078
 Frc consts  --    11.5817
 IR Inten    --     0.0000
  Atom  AN      X      Y      Z
     1   1    -0.00   0.00   0.71
     2   1     0.00   0.00  -0.71

 -------------------
 - Thermochemistry -
 -------------------
 Temperature   298.150 Kelvin.  Pressure   1.00000 Atm.
 Atom     1 has atomic number  1 and mass   1.00783
 Atom     2 has atomic number  1 and mass   1.00783
 Molecular mass:     2.01565 amu.
 Principal axes and moments of inertia in atomic units:
                           1         2         3
     Eigenvalues --     0.00000   0.99039   0.99039
           X           -0.00000   1.00000  -0.00000
           Y            0.00000   0.00000   1.00000
           Z            1.00000   0.00000  -0.00000
 This molecule is a prolate symmetric top.
 Rotational symmetry number  2.
 Rotational temperature (Kelvin)     87.45404
 Rotational constant (GHZ):        1822.248618
 Zero-point vibrational energy      26415.9 (Joules/Mol)
                                    6.31356 (Kcal/Mol)
 Vibrational temperatures:   6354.20
          (Kelvin)
 
 Zero-point correction=                           0.010061 (Hartree/Particle)
 Thermal correction to Energy=                    0.012422
 Thermal correction to Enthalpy=                  0.013366
 Thermal correction to Gibbs Free Energy=        -0.001424
 Sum of electronic and zero-point Energies=             -1.170475
 Sum of electronic and thermal Energies=                -1.168115
 Sum of electronic and thermal Enthalpies=              -1.167170
 Sum of electronic and thermal Free Energies=           -1.181960
 
                     E (Thermal)             CV                S
                      KCal/Mol        Cal/Mol-Kelvin    Cal/Mol-Kelvin
 Total                    7.795              4.968             31.127
 Electronic               0.000              0.000              0.000
 Translational            0.889              2.981             28.080
 Rotational               0.592              1.987              3.047
 Vibrational              6.314              0.000              0.000
                       Q            Log10(Q)             Ln(Q)
 Total Bot       0.451690D+01          0.654840          1.507826
 Total V=0       0.191736D+06          5.282703         12.163873
 Vib (Bot)       0.235580D-04         -4.627863        -10.656047
 Vib (V=0)       0.100000D+01          0.000000          0.000000
 Electronic      0.100000D+01          0.000000          0.000000
 Translational   0.112481D+06          5.051078         11.630537
 Rotational      0.170461D+01          0.231625          0.533336
 ***** Axes restored to original set *****
 -------------------------------------------------------------------
 Center     Atomic                   Forces (Hartrees/Bohr)
 Number     Number              X              Y              Z
 -------------------------------------------------------------------
      1        1           0.000000000   -0.000000000   -0.000060919
      2        1          -0.000000000    0.000000000    0.000060919
 -------------------------------------------------------------------
 Cartesian Forces:  Max     0.000060919 RMS     0.000035171
 Force constants in Cartesian coordinates: 
                1             2             3             4             5 
      1 -0.401022D-04
      2  0.000000D+00 -0.401022D-04
      3  0.000000D+00  0.000000D+00  0.371948D+00
      4  0.401022D-04  0.000000D+00  0.000000D+00 -0.401022D-04
      5  0.000000D+00  0.401022D-04  0.000000D+00  0.000000D+00 -0.401022D-04
      6  0.000000D+00  0.000000D+00 -0.371948D+00  0.000000D+00  0.000000D+00
                6 
      6  0.371948D+00
 Force constants in internal coordinates: 
                1 
      1  0.371948D+00
 Leave Link  716 at Sun Aug 18 15:12:54 2024, MaxMem=   13107200 cpu:       0.0
 (Enter /programs/64bit/g09/g09-gfortran/bin/l103.exe)

 GradGradGradGradGradGradGradGradGradGradGradGradGradGradGradGradGradGrad
 Berny optimization.
 Internal  Forces:  Max     0.000060919 RMS     0.000060919
 Search for a local minimum.
 Step number   1 out of a maximum of    2
 All quantities printed in internal units (Hartrees-Bohrs-Radians)
 Second derivative matrix not updated -- analytic derivatives used.
 The second derivative matrix:
                          R1
           R1           0.37195
     Eigenvalues ---    0.37195
 Angle between quadratic step and forces=   0.00 degrees.
 Linear search not attempted -- first point.
 Iteration  1 RMS(Cart)=  0.00011581 RMS(Int)=  0.00000000
 Iteration  2 RMS(Cart)=  0.00000000 RMS(Int)=  0.00000000
 ClnCor:  largest displacement from symmetrization is 5.01D-21 for atom     1.
 Variable       Old X    -DE/DX   Delta X   Delta X   Delta X     New X
                                 (Linear)    (Quad)   (Total)
    R1        1.40193   0.00006   0.00000   0.00016   0.00016   1.40209
         Item               Value     Threshold  Converged?
 Maximum Force            0.000061     0.000450     YES
 RMS     Force            0.000061     0.000300     YES
 Maximum Displacement     0.000082     0.001800     YES
 RMS     Displacement     0.000116     0.001200     YES
 Predicted change in Energy=-4.988698D-09
 Optimization completed.
    -- Stationary point found.
                           ----------------------------
                           !   Optimized Parameters   !
                           ! (Angstroms and Degrees)  !
 --------------------------                            --------------------------
 ! Name  Definition              Value          Derivative Info.                !
 --------------------------------------------------------------------------------
 ! R1    R(1,2)                  0.7419         -DE/DX =    0.0001              !
 --------------------------------------------------------------------------------
 GradGradGradGradGradGradGradGradGradGradGradGradGradGradGradGradGradGrad

 Leave Link  103 at Sun Aug 18 15:12:54 2024, MaxMem=   13107200 cpu:       0.0
 (Enter /programs/64bit/g09/g09-gfortran/bin/l9999.exe)
 1\1\GINC-MOLMOD\Freq\RB3LYP\CC-pVQZ\H2\OSPITE\18-Aug-2024\0\\#P Geom=A
 llCheck Guess=TCheck SCRF=Check GenChk RB3LYP/CC-pVQZ Freq\\hydogen (m
 olecule) with cc-pVQZ basis set\\0,1\H,0.,0.,-0.0009344878\H,0.,0.,0.7
 409344878\\Version=EM64L-G09RevA.02\State=1-SGG\HF=-1.1805363\RMSD=2.5
 26e-11\RMSF=3.517e-05\ZeroPoint=0.0100613\Thermal=0.0124218\Dipole=0.,
 0.,0.\DipoleDeriv=0.,0.,0.,0.,0.,0.,0.,0.,0.,0.,0.,0.,0.,0.,0.,0.,0.,0
 .\Polar=3.4509744,0.,3.4509744,0.,0.,6.8111051\PG=D*H [C*(H1.H1)]\NIma
 g=0\\-0.00004010,0.,-0.00004010,0.,0.,0.37194834,0.00004010,0.,0.,-0.0
 0004010,0.,0.00004010,0.,0.,-0.00004010,0.,0.,-0.37194834,0.,0.,0.3719
 4834\\0.,0.,0.00006092,0.,0.,-0.00006092\\\@



 IN THIS SHORT LIFE

 THAT ONLY LASTS AN HOUR

 HOW MUCH, HOW LITTLE, IS WITHIN OUR POWER....


 EMILY DICKINSON BOLTS OF MELODY NO. 521
 Job cpu time:  0 days  0 hours  0 minutes 13.6 seconds.
 File lengths (MBytes):  RWF=      5 Int=      0 D2E=      0 Chk=      1 Scr=      1
 Normal termination of Gaussian 09 at Sun Aug 18 15:12:54 2024.
