 Entering Gaussian System, Link 0=/g100_work/pMI24_ChiCa/g09d1/g09d01/d01/build-node-6-2-59348/src/main/g09
 Input=geom.com
 Output=geom.log
 Initial command:
 /g100_work/pMI24_ChiCa/g09d1/g09d01/d01/build-node-6-2-59348/src/main/l1.exe "/g100_scratch/userexternal/ecabiati/g16_14313271/Gau-50405.inp" -scrdir="/g100_scratch/userexternal/ecabiati/g16_14313271/"
 Entering Link 1 = /g100_work/pMI24_ChiCa/g09d1/g09d01/d01/build-node-6-2-59348/src/main/l1.exe PID=     50406.
  
 Copyright (c) 1988,1990,1992,1993,1995,1998,2003,2009,2013,
            Gaussian, Inc.  All Rights Reserved.
  
 This is part of the Gaussian(R) 09 program.  It is based on
 the Gaussian(R) 03 system (copyright 2003, Gaussian, Inc.),
 the Gaussian(R) 98 system (copyright 1998, Gaussian, Inc.),
 the Gaussian(R) 94 system (copyright 1995, Gaussian, Inc.),
 the Gaussian 92(TM) system (copyright 1992, Gaussian, Inc.),
 the Gaussian 90(TM) system (copyright 1990, Gaussian, Inc.),
 the Gaussian 88(TM) system (copyright 1988, Gaussian, Inc.),
 the Gaussian 86(TM) system (copyright 1986, Carnegie Mellon
 University), and the Gaussian 82(TM) system (copyright 1983,
 Carnegie Mellon University). Gaussian is a federally registered
 trademark of Gaussian, Inc.
  
 This software contains proprietary and confidential information,
 including trade secrets, belonging to Gaussian, Inc.
  
 This software is provided under written license and may be
 used, copied, transmitted, or stored only in accord with that
 written license.
  
 The following legend is applicable only to US Government
 contracts under FAR:
  
                    RESTRICTED RIGHTS LEGEND
  
 Use, reproduction and disclosure by the US Government is
 subject to restrictions as set forth in subparagraphs (a)
 and (c) of the Commercial Computer Software - Restricted
 Rights clause in FAR 52.227-19.
  
 Gaussian, Inc.
 340 Quinnipiac St., Bldg. 40, Wallingford CT 06492
  
  
 ---------------------------------------------------------------
 Warning -- This program may not be used in any manner that
 competes with the business of Gaussian, Inc. or will provide
 assistance to any competitor of Gaussian, Inc.  The licensee
 of this program is prohibited from giving any competitor of
 Gaussian, Inc. access to this program.  By using this program,
 the user acknowledges that Gaussian, Inc. is engaged in the
 business of creating and licensing software in the field of
 computational chemistry and represents and warrants to the
 licensee that it is not a competitor of Gaussian, Inc. and that
 it will not use this program in any manner prohibited above.
 ---------------------------------------------------------------
  

 Cite this work as:
 Gaussian 09, Revision D.01,
 M. J. Frisch, G. W. Trucks, H. B. Schlegel, G. E. Scuseria, 
 M. A. Robb, J. R. Cheeseman, G. Scalmani, V. Barone, B. Mennucci, 
 G. A. Petersson, H. Nakatsuji, M. Caricato, X. Li, H. P. Hratchian, 
 A. F. Izmaylov, J. Bloino, G. Zheng, J. L. Sonnenberg, M. Hada, 
 M. Ehara, K. Toyota, R. Fukuda, J. Hasegawa, M. Ishida, T. Nakajima, 
 Y. Honda, O. Kitao, H. Nakai, T. Vreven, J. A. Montgomery, Jr., 
 J. E. Peralta, F. Ogliaro, M. Bearpark, J. J. Heyd, E. Brothers, 
 K. N. Kudin, V. N. Staroverov, T. Keith, R. Kobayashi, J. Normand, 
 K. Raghavachari, A. Rendell, J. C. Burant, S. S. Iyengar, J. Tomasi, 
 M. Cossi, N. Rega, J. M. Millam, M. Klene, J. E. Knox, J. B. Cross, 
 V. Bakken, C. Adamo, J. Jaramillo, R. Gomperts, R. E. Stratmann, 
 O. Yazyev, A. J. Austin, R. Cammi, C. Pomelli, J. W. Ochterski, 
 R. L. Martin, K. Morokuma, V. G. Zakrzewski, G. A. Voth, 
 P. Salvador, J. J. Dannenberg, S. Dapprich, A. D. Daniels, 
 O. Farkas, J. B. Foresman, J. V. Ortiz, J. Cioslowski, 
 and D. J. Fox, Gaussian, Inc., Wallingford CT, 2013.
 
 ******************************************
 Gaussian 09:  EM64L-G09RevD.01 24-Apr-2013
                 1-Sep-2024 
 ******************************************
 %nproc=24
 Will use up to   24 processors via shared memory.
 %mem=2Gb
 %chk=TMS_nmr.chk
 -----------------------------
 #p B3LYP/6-31+g(d,p) nmr=giao
 -----------------------------
 1/38=1/1;
 2/12=2,17=6,18=5,40=1/2;
 3/5=1,6=6,7=111,11=2,16=1,25=1,30=1,74=-5/1,2,8,3;
 4//1;
 5/5=2,38=5/2;
 8/6=1,10=90,11=11/1;
 10/13=100,45=16/2;
 6/7=2,8=2,9=2,10=2,28=1/1;
 99/9=1/99;
 Leave Link    1 at Sun Sep  1 13:18:49 2024, MaxMem=   268435456 cpu:         0.1
 (Enter /g100_work/pMI24_ChiCa/g09d1/g09d01/d01/build-node-6-2-59348/src/main/l101.exe)
 ---------------------
 tetramethylsilane nmr
 ---------------------
 Symbolic Z-matrix:
 Charge =  0 Multiplicity = 1
 si
 c                    1    csi2
 c                    1    csi3     2    csic3
 c                    1    csi4     2    csic4    3    dih4     0
 c                    1    csi5     3    csic5    2    dih5     0
 h                    3    hc6      1    hcsi6    2    dih6     0
 h                    3    hc7      1    hcsi7    6    dih7     0
 h                    3    hc8      1    hcsi8    6    dih8     0
 h                    2    hc9      1    hcsi9    3    dih9     0
 h                    2    hc10     1    hcsi10   9    dih10    0
 h                    2    hc11     1    hcsi11   9    dih11    0
 h                    5    hc12     1    hcsi12   3    dih12    0
 h                    5    hc13     1    hcsi13   12   dih13    0
 h                    5    hc14     1    hcsi14   12   dih14    0
 h                    4    hc15     1    hcsi15   2    dih15    0
 h                    4    hc16     1    hcsi16   15   dih16    0
 h                    4    hc17     1    hcsi17   15   dih17    0
       Variables:
  csi2                  1.8955                   
  csi3                  1.8955                   
  csic3               109.4712                   
  csi4                  1.8955                   
  csic4               109.4712                   
  dih4                120.                       
  csi5                  1.8955                   
  csic5               109.4712                   
  dih5                120.                       
  hc6                   1.0964                   
  hcsi6               111.2523                   
  dih6                180.                       
  hc7                   1.0964                   
  hcsi7               111.2523                   
  dih7                120.                       
  hc8                   1.0964                   
  hcsi8               111.2523                   
  dih8                240.                       
  hc9                   1.0964                   
  hcsi9               111.2523                   
  dih9                180.                       
  hc10                  1.0964                   
  hcsi10              111.2523                   
  dih10               120.                       
  hc11                  1.0964                   
  hcsi11              111.2523                   
  dih11               240.                       
  hc12                  1.0964                   
  hcsi12              111.2523                   
  dih12               180.                       
  hc13                  1.0964                   
  hcsi13              111.2523                   
  dih13               120.                       
  hc14                  1.0964                   
  hcsi14              111.2523                   
  dih14               240.                       
  hc15                  1.0964                   
  hcsi15              111.2523                   
  dih15               180.                       
  hc16                  1.0964                   
  hcsi16              111.2523                   
  dih16               120.                       
  hc17                  1.0964                   
  hcsi17              111.2523                   
  dih17               240.                       
 
     3 tetrahedral angles replaced.
 NAtoms=     17 NQM=       17 NQMF=       0 NMMI=      0 NMMIF=      0
                NMic=       0 NMicF=      0.
    3 tetrahedral angles replaced.
                    Isotopes and Nuclear Properties:
 (Nuclear quadrupole moments (NQMom) in fm**2, nuclear magnetic moments (NMagM)
  in nuclear magnetons)

  Atom         1           2           3           4           5           6           7           8           9          10
 IAtWgt=          28          12          12          12          12           1           1           1           1           1
 AtmWgt=  27.9769284  12.0000000  12.0000000  12.0000000  12.0000000   1.0078250   1.0078250   1.0078250   1.0078250   1.0078250
 NucSpn=           0           0           0           0           0           1           1           1           1           1
 AtZEff=   0.0000000   0.0000000   0.0000000   0.0000000   0.0000000   0.0000000   0.0000000   0.0000000   0.0000000   0.0000000
 NQMom=    0.0000000   0.0000000   0.0000000   0.0000000   0.0000000   0.0000000   0.0000000   0.0000000   0.0000000   0.0000000
 NMagM=    0.0000000   0.0000000   0.0000000   0.0000000   0.0000000   2.7928460   2.7928460   2.7928460   2.7928460   2.7928460
 AtZNuc=  14.0000000   6.0000000   6.0000000   6.0000000   6.0000000   1.0000000   1.0000000   1.0000000   1.0000000   1.0000000

  Atom        11          12          13          14          15          16          17
 IAtWgt=           1           1           1           1           1           1           1
 AtmWgt=   1.0078250   1.0078250   1.0078250   1.0078250   1.0078250   1.0078250   1.0078250
 NucSpn=           1           1           1           1           1           1           1
 AtZEff=   0.0000000   0.0000000   0.0000000   0.0000000   0.0000000   0.0000000   0.0000000
 NQMom=    0.0000000   0.0000000   0.0000000   0.0000000   0.0000000   0.0000000   0.0000000
 NMagM=    2.7928460   2.7928460   2.7928460   2.7928460   2.7928460   2.7928460   2.7928460
 AtZNuc=   1.0000000   1.0000000   1.0000000   1.0000000   1.0000000   1.0000000   1.0000000
 Leave Link  101 at Sun Sep  1 13:18:49 2024, MaxMem=   268435456 cpu:         0.2
 (Enter /g100_work/pMI24_ChiCa/g09d1/g09d01/d01/build-node-6-2-59348/src/main/l202.exe)
                          Input orientation:                          
 ---------------------------------------------------------------------
 Center     Atomic      Atomic             Coordinates (Angstroms)
 Number     Number       Type             X           Y           Z
 ---------------------------------------------------------------------
      1         14           0        0.000000    0.000000    0.000000
      2          6           0        0.000000    0.000000    1.895500
      3          6           0        1.787095    0.000000   -0.631833
      4          6           0       -0.893547   -1.547669   -0.631833
      5          6           0       -0.893547    1.547669   -0.631833
      6          1           0        1.821171    0.000000   -1.727704
      7          1           0        2.332090    0.884937   -0.282607
      8          1           0        2.332090   -0.884937   -0.282607
      9          1           0       -1.021837    0.000000    2.292918
     10          1           0        0.510919   -0.884937    2.292918
     11          1           0        0.510919    0.884937    2.292918
     12          1           0       -1.932423    1.577181   -0.282607
     13          1           0       -0.399667    2.462118   -0.282607
     14          1           0       -0.910586    1.577181   -1.727704
     15          1           0       -0.910586   -1.577181   -1.727704
     16          1           0       -0.399667   -2.462118   -0.282607
     17          1           0       -1.932423   -1.577181   -0.282607
 ---------------------------------------------------------------------
                    Distance matrix (angstroms):
                    1          2          3          4          5
     1  Si   0.000000
     2  C    1.895500   0.000000
     3  C    1.895500   3.095339   0.000000
     4  C    1.895500   3.095339   3.095339   0.000000
     5  C    1.895500   3.095339   3.095339   3.095339   0.000000
     6  H    2.510304   4.055154   1.096400   3.311481   3.311481
     7  H    2.510304   3.311481   1.096400   4.055154   3.311481
     8  H    2.510304   3.311481   1.096400   3.311481   4.055154
     9  H    2.510304   1.096400   4.055154   3.311481   3.311481
    10  H    2.510304   1.096400   3.311481   3.311481   4.055154
    11  H    2.510304   1.096400   3.311481   4.055154   3.311481
    12  H    2.510304   3.311481   4.055154   3.311481   1.096400
    13  H    2.510304   3.311481   3.311481   4.055154   1.096400
    14  H    2.510304   4.055154   3.311481   3.311481   1.096400
    15  H    2.510304   4.055154   3.311481   1.096400   3.311481
    16  H    2.510304   3.311481   3.311481   1.096400   4.055154
    17  H    2.510304   3.311481   4.055154   1.096400   3.311481
                    6          7          8          9         10
     6  H    0.000000
     7  H    1.769874   0.000000
     8  H    1.769874   1.769874   0.000000
     9  H    4.924236   4.320333   4.320333   0.000000
    10  H    4.320333   3.616967   3.154361   1.769874   0.000000
    11  H    4.320333   3.154361   3.616967   1.769874   1.769874
    12  H    4.320333   4.320333   4.924236   3.154361   4.320333
    13  H    3.616967   3.154361   4.320333   3.616967   4.320333
    14  H    3.154361   3.616967   4.320333   4.320333   4.924236
    15  H    3.154361   4.320333   3.616967   4.320333   4.320333
    16  H    3.616967   4.320333   3.154361   3.616967   3.154361
    17  H    4.320333   4.924236   4.320333   3.154361   3.616967
                   11         12         13         14         15
    11  H    0.000000
    12  H    3.616967   0.000000
    13  H    3.154361   1.769874   0.000000
    14  H    4.320333   1.769874   1.769874   0.000000
    15  H    4.924236   3.616967   4.320333   3.154361   0.000000
    16  H    4.320333   4.320333   4.924236   4.320333   1.769874
    17  H    4.320333   3.154361   4.320333   3.616967   1.769874
                   16         17
    16  H    0.000000
    17  H    1.769874   0.000000
 Stoichiometry    C4H12Si
 Framework group  TD[O(Si),4C3(C),6SGD(H2)]
 Deg. of freedom     3
 Full point group                 TD      NOp  24
 Largest Abelian subgroup         D2      NOp   4
 Largest concise Abelian subgroup D2      NOp   4
                         Standard orientation:                         
 ---------------------------------------------------------------------
 Center     Atomic      Atomic             Coordinates (Angstroms)
 Number     Number       Type             X           Y           Z
 ---------------------------------------------------------------------
      1         14           0        0.000000    0.000000    0.000000
      2          6           0       -1.094367   -1.094367    1.094367
      3          6           0        1.094367    1.094367    1.094367
      4          6           0        1.094367   -1.094367   -1.094367
      5          6           0       -1.094367    1.094367   -1.094367
      6          1           0        1.740980    1.740980    0.489490
      7          1           0        0.489490    1.740980    1.740980
      8          1           0        1.740980    0.489490    1.740980
      9          1           0       -1.740980   -1.740980    0.489490
     10          1           0       -0.489490   -1.740980    1.740980
     11          1           0       -1.740980   -0.489490    1.740980
     12          1           0       -1.740980    0.489490   -1.740980
     13          1           0       -1.740980    1.740980   -0.489490
     14          1           0       -0.489490    1.740980   -1.740980
     15          1           0        1.740980   -0.489490   -1.740980
     16          1           0        1.740980   -1.740980   -0.489490
     17          1           0        0.489490   -1.740980   -1.740980
 ---------------------------------------------------------------------
 Rotational constants (GHZ):      3.0484749      3.0484749      3.0484749
 Leave Link  202 at Sun Sep  1 13:18:49 2024, MaxMem=   268435456 cpu:         0.2
 (Enter /g100_work/pMI24_ChiCa/g09d1/g09d01/d01/build-node-6-2-59348/src/main/l301.exe)
 Standard basis: 6-31+G(d,p) (6D, 7F)
 Ernie: Thresh=  0.10000D-02 Tol=  0.10000D-05 Strict=F.
 There are    42 symmetry adapted cartesian basis functions of A   symmetry.
 There are    39 symmetry adapted cartesian basis functions of B1  symmetry.
 There are    39 symmetry adapted cartesian basis functions of B2  symmetry.
 There are    39 symmetry adapted cartesian basis functions of B3  symmetry.
 There are    42 symmetry adapted basis functions of A   symmetry.
 There are    39 symmetry adapted basis functions of B1  symmetry.
 There are    39 symmetry adapted basis functions of B2  symmetry.
 There are    39 symmetry adapted basis functions of B3  symmetry.
   159 basis functions,   268 primitive gaussians,   159 cartesian basis functions
    25 alpha electrons       25 beta electrons
       nuclear repulsion energy       244.2437840981 Hartrees.
 IExCor=  402 DFT=T Ex+Corr=B3LYP ExCW=0 ScaHFX=  0.200000
 ScaDFX=  0.800000  0.720000  1.000000  0.810000 ScalE2=  1.000000  1.000000
 IRadAn=      0 IRanWt=     -1 IRanGd=            0 ICorTp=0 IEmpDi=  4
 NAtoms=   17 NActive=   17 NUniq=    3 SFac= 4.00D+00 NAtFMM=   60 NAOKFM=F Big=F
 Integral buffers will be    131072 words long.
 Raffenetti 2 integral format.
 Two-electron integral symmetry is turned on.
 Leave Link  301 at Sun Sep  1 13:18:49 2024, MaxMem=   268435456 cpu:         0.2
 (Enter /g100_work/pMI24_ChiCa/g09d1/g09d01/d01/build-node-6-2-59348/src/main/l302.exe)
 NPDir=0 NMtPBC=     1 NCelOv=     1 NCel=       1 NClECP=     1 NCelD=      1
         NCelK=      1 NCelE2=     1 NClLst=     1 CellRange=     0.0.
 One-electron integrals computed using PRISM.
 One-electron integral symmetry used in STVInt
 NBasis=   159 RedAO= T EigKep=  3.63D-04  NBF=    42    39    39    39
 NBsUse=   159 1.00D-06 EigRej= -1.00D+00 NBFU=    42    39    39    39
 Precomputing XC quadrature grid using
 IXCGrd= 4 IRadAn=           0 IRanWt=          -1 IRanGd=           0 AccXCQ= 0.00D+00.
 Generated NRdTot=       0 NPtTot=           0 NUsed=           0 NTot=          32
 NSgBfM=   159   159   159   159   159 MxSgAt=    17 MxSgA2=    17.
 Leave Link  302 at Sun Sep  1 13:18:50 2024, MaxMem=   268435456 cpu:         2.0
 (Enter /g100_work/pMI24_ChiCa/g09d1/g09d01/d01/build-node-6-2-59348/src/main/l308.exe)
 Leave Link  308 at Sun Sep  1 13:18:50 2024, MaxMem=   268435456 cpu:         0.2
 (Enter /g100_work/pMI24_ChiCa/g09d1/g09d01/d01/build-node-6-2-59348/src/main/l303.exe)
 DipDrv:  MaxL=1.
 Leave Link  303 at Sun Sep  1 13:18:50 2024, MaxMem=   268435456 cpu:         0.2
 (Enter /g100_work/pMI24_ChiCa/g09d1/g09d01/d01/build-node-6-2-59348/src/main/l401.exe)
 ExpMin= 3.31D-02 ExpMax= 1.61D+04 ExpMxC= 2.43D+03 IAcc=3 IRadAn=         5 AccDes= 0.00D+00
 Harris functional with IExCor=  402 and IRadAn=       5 diagonalized for initial guess.
 HarFok:  IExCor=  402 AccDes= 0.00D+00 IRadAn=         5 IDoV= 1 UseB2=F ITyADJ=14
 ICtDFT=  3500011 ScaDFX=  1.000000  1.000000  1.000000  1.000000
 FoFCou: FMM=F IPFlag=           0 FMFlag=      100000 FMFlg1=           0
         NFxFlg=           0 DoJE=T BraDBF=F KetDBF=T FulRan=T
         wScrn=  0.000000 ICntrl=     500 IOpCl=  0 I1Cent=   200000004 NGrid=           0
         NMat0=    1 NMatS0=      1 NMatT0=    0 NMatD0=    1 NMtDS0=    0 NMtDT0=    0
 Petite list used in FoFCou.
 Harris En= -449.309684972084    
 JPrj=0 DoOrth=F DoCkMO=F.
 Initial guess orbital symmetries:
       Occupied  (A1) (A1) (T2) (T2) (T2) (A1) (T2) (T2) (T2) (A1)
                 (T2) (T2) (T2) (A1) (T2) (T2) (T2) (E) (E) (T1)
                 (T1) (T1) (T2) (T2) (T2)
       Virtual   (A1) (T2) (T2) (T2) (T2) (T2) (T2) (A1) (E) (E)
                 (T2) (T2) (T2) (E) (E) (T1) (T1) (T1) (T2) (T2)
                 (T2) (A1) (A1) (T2) (T2) (T2) (T2) (T2) (T2) (T1)
                 (T1) (T1) (T2) (T2) (T2) (A1) (T2) (T2) (T2) (E)
                 (E) (A1) (T2) (T2) (T2) (T1) (T1) (T1) (A1) (E)
                 (E) (T2) (T2) (T2) (T2) (T2) (T2) (T1) (T1) (T1)
                 (E) (E) (T2) (T2) (T2) (A1) (T2) (T2) (T2) (T2)
                 (T2) (T2) (T1) (T1) (T1) (E) (E) (A1) (T2) (T2)
                 (T2) (A1) (A2) (T1) (T1) (T1) (E) (E) (T2) (T2)
                 (T2) (T1) (T1) (T1) (T2) (T2) (T2) (T1) (T1) (T1)
                 (T2) (T2) (T2) (E) (E) (A1) (T2) (T2) (T2) (E)
                 (E) (T1) (T1) (T1) (T2) (T2) (T2) (A1) (T2) (T2)
                 (T2) (A1) (E) (E) (T2) (T2) (T2) (T1) (T1) (T1)
                 (T2) (T2) (T2) (A1)
 The electronic state of the initial guess is 1-A1.
 Leave Link  401 at Sun Sep  1 13:18:50 2024, MaxMem=   268435456 cpu:         2.6
 (Enter /g100_work/pMI24_ChiCa/g09d1/g09d01/d01/build-node-6-2-59348/src/main/l502.exe)
 Closed shell SCF:
 Using DIIS extrapolation, IDIIS=  1040.
 Integral symmetry usage will be decided dynamically.
 Keep R1 ints in memory in symmetry-blocked form, NReq=101268599.
 IVT=      101333 IEndB=      101333 NGot=   268435456 MDV=   248072577
 LenX=   248072577 LenY=   248046855
 Requested convergence on RMS density matrix=1.00D-08 within 128 cycles.
 Requested convergence on MAX density matrix=1.00D-06.
 Requested convergence on             energy=1.00D-06.
 No special actions if energy rises.
 FoFCou: FMM=F IPFlag=           0 FMFlag=           0 FMFlg1=           0
         NFxFlg=           0 DoJE=F BraDBF=F KetDBF=F FulRan=T
         wScrn=  0.000000 ICntrl=     600 IOpCl=  0 I1Cent=           0 NGrid=           0
         NMat0=    1 NMatS0=  12720 NMatT0=    0 NMatD0=    1 NMtDS0=    0 NMtDT0=    0
 Petite list used in FoFCou.

 Cycle   1  Pass 1  IDiag  1:
 E= -448.867198658479    
 DIIS: error= 3.71D-02 at cycle   1 NSaved=   1.
 NSaved= 1 IEnMin= 1 EnMin= -448.867198658479     IErMin= 1 ErrMin= 3.71D-02
 ErrMax= 3.71D-02  0.00D+00 EMaxC= 1.00D-01 BMatC= 3.36D-01 BMatP= 3.36D-01
 IDIUse=3 WtCom= 6.29D-01 WtEn= 3.71D-01
 Coeff-Com:  0.100D+01
 Coeff-En:   0.100D+01
 Coeff:      0.100D+01
 Gap=     0.181 Goal=   None    Shift=    0.000
 GapD=    0.181 DampG=1.000 DampE=0.500 DampFc=0.5000 IDamp=-1.
 Damping current iteration by 5.00D-01
 RMSDP=6.81D-03 MaxDP=1.51D-01              OVMax= 2.30D-01

 Cycle   2  Pass 1  IDiag  1:
 E= -449.022841120810     Delta-E=       -0.155642462332 Rises=F Damp=T
 DIIS: error= 1.08D-02 at cycle   2 NSaved=   2.
 NSaved= 2 IEnMin= 2 EnMin= -449.022841120810     IErMin= 2 ErrMin= 1.08D-02
 ErrMax= 1.08D-02  0.00D+00 EMaxC= 1.00D-01 BMatC= 8.76D-03 BMatP= 3.36D-01
 IDIUse=3 WtCom= 8.92D-01 WtEn= 1.08D-01
 Coeff-Com:  0.786D-01 0.921D+00
 Coeff-En:   0.151D+00 0.849D+00
 Coeff:      0.864D-01 0.914D+00
 Gap=     0.285 Goal=   None    Shift=    0.000
 RMSDP=9.37D-04 MaxDP=3.35D-02 DE=-1.56D-01 OVMax= 1.30D-01

 Cycle   3  Pass 1  IDiag  1:
 E= -449.217576965557     Delta-E=       -0.194735844747 Rises=F Damp=F
 DIIS: error= 2.60D-03 at cycle   3 NSaved=   3.
 NSaved= 3 IEnMin= 3 EnMin= -449.217576965557     IErMin= 3 ErrMin= 2.60D-03
 ErrMax= 2.60D-03  0.00D+00 EMaxC= 1.00D-01 BMatC= 6.47D-04 BMatP= 8.76D-03
 IDIUse=3 WtCom= 9.74D-01 WtEn= 2.60D-02
 Coeff-Com:  0.932D-02 0.141D+00 0.850D+00
 Coeff-En:   0.000D+00 0.000D+00 0.100D+01
 Coeff:      0.907D-02 0.137D+00 0.854D+00
 Gap=     0.280 Goal=   None    Shift=    0.000
 RMSDP=4.96D-04 MaxDP=2.59D-02 DE=-1.95D-01 OVMax= 1.19D-02

 Cycle   4  Pass 1  IDiag  1:
 E= -449.218041344216     Delta-E=       -0.000464378659 Rises=F Damp=F
 DIIS: error= 1.72D-03 at cycle   4 NSaved=   4.
 NSaved= 4 IEnMin= 4 EnMin= -449.218041344216     IErMin= 4 ErrMin= 1.72D-03
 ErrMax= 1.72D-03  0.00D+00 EMaxC= 1.00D-01 BMatC= 3.05D-04 BMatP= 6.47D-04
 IDIUse=3 WtCom= 9.83D-01 WtEn= 1.72D-02
 Coeff-Com: -0.602D-03-0.738D-02 0.405D+00 0.603D+00
 Coeff-En:   0.000D+00 0.000D+00 0.300D+00 0.700D+00
 Coeff:     -0.592D-03-0.725D-02 0.403D+00 0.605D+00
 Gap=     0.284 Goal=   None    Shift=    0.000
 RMSDP=1.86D-04 MaxDP=1.11D-02 DE=-4.64D-04 OVMax= 4.73D-03

 Cycle   5  Pass 1  IDiag  1:
 E= -449.218422729136     Delta-E=       -0.000381384919 Rises=F Damp=F
 DIIS: error= 2.45D-05 at cycle   5 NSaved=   5.
 NSaved= 5 IEnMin= 5 EnMin= -449.218422729136     IErMin= 5 ErrMin= 2.45D-05
 ErrMax= 2.45D-05  0.00D+00 EMaxC= 1.00D-01 BMatC= 1.11D-07 BMatP= 3.05D-04
 IDIUse=1 WtCom= 1.00D+00 WtEn= 0.00D+00
 Coeff-Com:  0.441D-03-0.624D-03 0.117D-01 0.138D-01 0.975D+00
 Coeff:      0.441D-03-0.624D-03 0.117D-01 0.138D-01 0.975D+00
 Gap=     0.285 Goal=   None    Shift=    0.000
 RMSDP=2.82D-06 MaxDP=5.67D-05 DE=-3.81D-04 OVMax= 9.88D-05

 Cycle   6  Pass 1  IDiag  1:
 E= -449.218422866971     Delta-E=       -0.000000137836 Rises=F Damp=F
 DIIS: error= 1.85D-06 at cycle   6 NSaved=   6.
 NSaved= 6 IEnMin= 6 EnMin= -449.218422866971     IErMin= 6 ErrMin= 1.85D-06
 ErrMax= 1.85D-06  0.00D+00 EMaxC= 1.00D-01 BMatC= 5.38D-10 BMatP= 1.11D-07
 IDIUse=1 WtCom= 1.00D+00 WtEn= 0.00D+00
 Coeff-Com:  0.110D-04-0.849D-05-0.168D-02-0.222D-02 0.594D-01 0.944D+00
 Coeff:      0.110D-04-0.849D-05-0.168D-02-0.222D-02 0.594D-01 0.944D+00
 Gap=     0.285 Goal=   None    Shift=    0.000
 RMSDP=3.23D-07 MaxDP=1.97D-05 DE=-1.38D-07 OVMax= 7.30D-06

 Cycle   7  Pass 1  IDiag  1:
 E= -449.218422867767     Delta-E=       -0.000000000795 Rises=F Damp=F
 DIIS: error= 5.85D-07 at cycle   7 NSaved=   7.
 NSaved= 7 IEnMin= 7 EnMin= -449.218422867767     IErMin= 7 ErrMin= 5.85D-07
 ErrMax= 5.85D-07  0.00D+00 EMaxC= 1.00D-01 BMatC= 1.48D-11 BMatP= 5.38D-10
 IDIUse=1 WtCom= 1.00D+00 WtEn= 0.00D+00
 Coeff-Com: -0.631D-05 0.279D-05-0.412D-03-0.549D-03-0.327D-02 0.151D+00
 Coeff-Com:  0.854D+00
 Coeff:     -0.631D-05 0.279D-05-0.412D-03-0.549D-03-0.327D-02 0.151D+00
 Coeff:      0.854D+00
 Gap=     0.285 Goal=   None    Shift=    0.000
 RMSDP=5.15D-08 MaxDP=3.56D-06 DE=-7.95D-10 OVMax= 7.40D-07

 Cycle   8  Pass 1  IDiag  1:
 E= -449.218422867683     Delta-E=        0.000000000083 Rises=F Damp=F
 DIIS: error= 2.90D-08 at cycle   8 NSaved=   8.
 NSaved= 8 IEnMin= 7 EnMin= -449.218422867767     IErMin= 8 ErrMin= 2.90D-08
 ErrMax= 2.90D-08  0.00D+00 EMaxC= 1.00D-01 BMatC= 1.08D-13 BMatP= 1.48D-11
 IDIUse=1 WtCom= 1.00D+00 WtEn= 0.00D+00
 Coeff-Com: -0.599D-06 0.102D-05 0.103D-04 0.262D-05-0.801D-03-0.534D-02
 Coeff-Com:  0.471D-02 0.100D+01
 Coeff:     -0.599D-06 0.102D-05 0.103D-04 0.262D-05-0.801D-03-0.534D-02
 Coeff:      0.471D-02 0.100D+01
 Gap=     0.285 Goal=   None    Shift=    0.000
 RMSDP=7.18D-09 MaxDP=2.20D-07 DE= 8.34D-11 OVMax= 1.21D-07

 SCF Done:  E(RB3LYP) =  -449.218422868     A.U. after    8 cycles
            NFock=  8  Conv=0.72D-08     -V/T= 2.0065
 KE= 4.463361453215D+02 PE=-1.545662936860D+03 EE= 4.058645845727D+02
 Leave Link  502 at Sun Sep  1 13:18:51 2024, MaxMem=   268435456 cpu:        16.0
 (Enter /g100_work/pMI24_ChiCa/g09d1/g09d01/d01/build-node-6-2-59348/src/main/l801.exe)
 DoSCS=F DFT=T ScalE2(SS,OS)=  1.000000  1.000000
 Range of M.O.s used for correlation:     1   159
 NBasis=   159 NAE=    25 NBE=    25 NFC=     0 NFV=     0
 NROrb=    159 NOA=    25 NOB=    25 NVA=   134 NVB=   134

 **** Warning!!: The largest alpha MO coefficient is  0.28848318D+02

 Leave Link  801 at Sun Sep  1 13:18:51 2024, MaxMem=   268435456 cpu:         0.1
 (Enter /g100_work/pMI24_ChiCa/g09d1/g09d01/d01/build-node-6-2-59348/src/main/l1002.exe)
 Minotr:  Closed shell wavefunction.
          Direct CPHF calculation.
          Differentiating once with respect to magnetic field using GIAOs.
          Electric field/nuclear overlap derivatives assumed to be zero.
          Using symmetry in CPHF.
          Requested convergence is 1.0D-08 RMS, and 1.0D-07 maximum.
          Secondary convergence is 1.0D-12 RMS, and 1.0D-12 maximum.
          NewPWx=T KeepS1=F KeepF1=F KeepIn=T MapXYZ=F SortEE=F KeepMc=T.
          MDV=     268435157 using IRadAn=       2.
 Generate precomputed XC quadrature information.
 Keep R3 ints in memory in symmetry-blocked form, NReq=101174576.
 FoFCou: FMM=F IPFlag=           0 FMFlag=           0 FMFlg1=           0
         NFxFlg=           0 DoJE=F BraDBF=F KetDBF=F FulRan=T
         wScrn=  0.000000 ICntrl=     600 IOpCl=  0 I1Cent=           0 NGrid=           0
         NMat0=    1 NMatS0=  12720 NMatT0=    0 NMatD0=    1 NMtDS0=    0 NMtDT0=    0
 Petite list used in FoFCou.
          Solving linear equations simultaneously, MaxMat=       0.
 FoFJK:  IHMeth= 1 ICntrl=    6127 DoSepK=F KAlg= 0 I1Cent=   0 FoldK=F
 IRaf=         1 NMat=   1 IRICut=       1 DoRegI=T DoRafI=F ISym2E= 0.
          There are     3 degrees of freedom in the 1st order CPHF.  IDoFFX=0 NUNeed=     3.
      3 vectors produced by pass  0 Test12= 1.12D-13 3.33D-08 XBig12= 3.35D+00 3.72D-01.
 AX will form     3 AO Fock derivatives at one time.
      3 vectors produced by pass  1 Test12= 1.12D-13 3.33D-08 XBig12= 4.54D-03 1.80D-02.
      3 vectors produced by pass  2 Test12= 1.12D-13 3.33D-08 XBig12= 4.53D-06 7.04D-04.
      3 vectors produced by pass  3 Test12= 1.12D-13 3.33D-08 XBig12= 4.19D-09 2.04D-05.
      3 vectors produced by pass  4 Test12= 1.12D-13 3.33D-08 XBig12= 5.26D-12 5.52D-07.
 InvSVY:  IOpt=1 It=  1 EMax= 2.22D-16
 Solved reduced A of dimension    15 with     3 vectors.
 Calculating GIAO nuclear magnetic shielding tensors.
 SCF GIAO Magnetic shielding tensor (ppm):
      1  Si   Isotropic =   405.4513   Anisotropy =     0.0000
   XX=   405.4513   YX=     0.0000   ZX=    -0.0000
   XY=    -0.0000   YY=   405.4513   ZY=    -0.0000
   XZ=     0.0000   YZ=    -0.0000   ZZ=   405.4513
   Eigenvalues:   405.4513   405.4513   405.4513
      2  C    Isotropic =   192.5585   Anisotropy =     9.0416
   XX=   192.5585   YX=     3.0139   ZX=    -3.0139
   XY=     3.0139   YY=   192.5585   ZY=    -3.0139
   XZ=    -3.0139   YZ=    -3.0139   ZZ=   192.5585
   Eigenvalues:   189.5447   189.5447   198.5862
      3  C    Isotropic =   192.5585   Anisotropy =     9.0416
   XX=   192.5585   YX=     3.0139   ZX=     3.0139
   XY=     3.0139   YY=   192.5585   ZY=     3.0139
   XZ=     3.0139   YZ=     3.0139   ZZ=   192.5585
   Eigenvalues:   189.5447   189.5447   198.5862
      4  C    Isotropic =   192.5585   Anisotropy =     9.0416
   XX=   192.5585   YX=    -3.0139   ZX=    -3.0139
   XY=    -3.0139   YY=   192.5585   ZY=     3.0139
   XZ=    -3.0139   YZ=     3.0139   ZZ=   192.5585
   Eigenvalues:   189.5447   189.5447   198.5862
      5  C    Isotropic =   192.5585   Anisotropy =     9.0416
   XX=   192.5585   YX=    -3.0139   ZX=     3.0139
   XY=    -3.0139   YY=   192.5585   ZY=    -3.0139
   XZ=     3.0139   YZ=    -3.0139   ZZ=   192.5585
   Eigenvalues:   189.5447   189.5447   198.5862
      6  H    Isotropic =    31.6496   Anisotropy =     9.7522
   XX=    32.4311   YX=     4.8893   ZX=    -1.9379
   XY=     4.8893   YY=    32.4311   ZY=    -1.9379
   XZ=    -1.7224   YZ=    -1.7224   ZZ=    30.0867
   Eigenvalues:    27.5418    29.2560    38.1511
      7  H    Isotropic =    31.6496   Anisotropy =     9.7522
   XX=    30.0867   YX=    -1.7224   ZX=    -1.7224
   XY=    -1.9379   YY=    32.4311   ZY=     4.8893
   XZ=    -1.9379   YZ=     4.8893   ZZ=    32.4311
   Eigenvalues:    27.5418    29.2560    38.1511
      8  H    Isotropic =    31.6496   Anisotropy =     9.7522
   XX=    32.4311   YX=    -1.9379   ZX=     4.8893
   XY=    -1.7224   YY=    30.0867   ZY=    -1.7224
   XZ=     4.8893   YZ=    -1.9379   ZZ=    32.4311
   Eigenvalues:    27.5418    29.2560    38.1511
      9  H    Isotropic =    31.6496   Anisotropy =     9.7522
   XX=    32.4311   YX=     4.8893   ZX=     1.9379
   XY=     4.8893   YY=    32.4311   ZY=     1.9379
   XZ=     1.7224   YZ=     1.7224   ZZ=    30.0867
   Eigenvalues:    27.5418    29.2560    38.1511
     10  H    Isotropic =    31.6496   Anisotropy =     9.7522
   XX=    30.0867   YX=    -1.7224   ZX=     1.7224
   XY=    -1.9379   YY=    32.4311   ZY=    -4.8893
   XZ=     1.9379   YZ=    -4.8893   ZZ=    32.4311
   Eigenvalues:    27.5418    29.2560    38.1511
     11  H    Isotropic =    31.6496   Anisotropy =     9.7522
   XX=    32.4311   YX=    -1.9379   ZX=    -4.8893
   XY=    -1.7224   YY=    30.0867   ZY=     1.7224
   XZ=    -4.8893   YZ=     1.9379   ZZ=    32.4311
   Eigenvalues:    27.5418    29.2560    38.1511
     12  H    Isotropic =    31.6496   Anisotropy =     9.7522
   XX=    32.4311   YX=     1.9379   ZX=     4.8893
   XY=     1.7224   YY=    30.0867   ZY=     1.7224
   XZ=     4.8893   YZ=     1.9379   ZZ=    32.4311
   Eigenvalues:    27.5418    29.2560    38.1511
     13  H    Isotropic =    31.6496   Anisotropy =     9.7522
   XX=    32.4311   YX=    -4.8893   ZX=    -1.9379
   XY=    -4.8893   YY=    32.4311   ZY=     1.9379
   XZ=    -1.7224   YZ=     1.7224   ZZ=    30.0867
   Eigenvalues:    27.5418    29.2560    38.1511
     14  H    Isotropic =    31.6496   Anisotropy =     9.7522
   XX=    30.0867   YX=     1.7224   ZX=    -1.7224
   XY=     1.9379   YY=    32.4311   ZY=    -4.8893
   XZ=    -1.9379   YZ=    -4.8893   ZZ=    32.4311
   Eigenvalues:    27.5418    29.2560    38.1511
     15  H    Isotropic =    31.6496   Anisotropy =     9.7522
   XX=    32.4311   YX=     1.9379   ZX=    -4.8893
   XY=     1.7224   YY=    30.0867   ZY=    -1.7224
   XZ=    -4.8893   YZ=    -1.9379   ZZ=    32.4311
   Eigenvalues:    27.5418    29.2560    38.1511
     16  H    Isotropic =    31.6496   Anisotropy =     9.7522
   XX=    32.4311   YX=    -4.8893   ZX=     1.9379
   XY=    -4.8893   YY=    32.4311   ZY=    -1.9379
   XZ=     1.7224   YZ=    -1.7224   ZZ=    30.0867
   Eigenvalues:    27.5418    29.2560    38.1511
     17  H    Isotropic =    31.6496   Anisotropy =     9.7522
   XX=    30.0867   YX=     1.7224   ZX=     1.7224
   XY=     1.9379   YY=    32.4311   ZY=     4.8893
   XZ=     1.9379   YZ=     4.8893   ZZ=    32.4311
   Eigenvalues:    27.5418    29.2560    38.1511
 End of Minotr F.D. properties file   721 does not exist.
 End of Minotr F.D. properties file   722 does not exist.
 End of Minotr F.D. properties file   788 does not exist.
 Leave Link 1002 at Sun Sep  1 13:18:53 2024, MaxMem=   268435456 cpu:        26.2
 (Enter /g100_work/pMI24_ChiCa/g09d1/g09d01/d01/build-node-6-2-59348/src/main/l601.exe)
 Copying SCF densities to generalized density rwf, IOpCl= 0 IROHF=0.

 **********************************************************************

            Population analysis using the SCF density.

 **********************************************************************

 Orbital symmetries:
       Occupied  (A1) (T2) (T2) (T2) (A1) (A1) (T2) (T2) (T2) (A1)
                 (T2) (T2) (T2) (A1) (T2) (T2) (T2) (E) (E) (T1)
                 (T1) (T1) (T2) (T2) (T2)
       Virtual   (A1) (T2) (T2) (T2) (T2) (T2) (T2) (A1) (E) (E)
                 (T1) (T1) (T1) (T2) (T2) (T2) (T2) (T2) (T2) (A1)
                 (E) (E) (T2) (T2) (T2) (T2) (T2) (T2) (A1) (T1)
                 (T1) (T1) (T2) (T2) (T2) (A1) (T2) (T2) (T2) (A1)
                 (E) (E) (T2) (T2) (T2) (A1) (E) (E) (T1) (T1)
                 (T1) (T2) (T2) (T2) (T2) (T2) (T2) (T1) (T1) (T1)
                 (E) (E) (T2) (T2) (T2) (A1) (T2) (T2) (T2) (T2)
                 (T2) (T2) (T1) (T1) (T1) (A1) (E) (E) (T2) (T2)
                 (T2) (A1) (A2) (T1) (T1) (T1) (E) (E) (T2) (T2)
                 (T2) (T1) (T1) (T1) (T2) (T2) (T2) (T1) (T1) (T1)
                 (T2) (T2) (T2) (E) (E) (A1) (T2) (T2) (T2) (E)
                 (E) (T1) (T1) (T1) (T2) (T2) (T2) (A1) (T2) (T2)
                 (T2) (A1) (E) (E) (T2) (T2) (T2) (T1) (T1) (T1)
                 (T2) (T2) (T2) (A1)
 The electronic state is 1-A1.
 Alpha  occ. eigenvalues --  -66.11971 -10.16211 -10.16211 -10.16211 -10.16211
 Alpha  occ. eigenvalues --   -5.26397  -3.62271  -3.62271  -3.62271  -0.71868
 Alpha  occ. eigenvalues --   -0.67635  -0.67635  -0.67635  -0.45770  -0.41207
 Alpha  occ. eigenvalues --   -0.41207  -0.41207  -0.39710  -0.39710  -0.37965
 Alpha  occ. eigenvalues --   -0.37965  -0.37965  -0.29650  -0.29650  -0.29650
 Alpha virt. eigenvalues --   -0.01190   0.01950   0.01950   0.01950   0.05691
 Alpha virt. eigenvalues --    0.05691   0.05691   0.07270   0.07369   0.07369
 Alpha virt. eigenvalues --    0.10224   0.10224   0.10224   0.10994   0.10994
 Alpha virt. eigenvalues --    0.10994   0.12969   0.12969   0.12969   0.14471
 Alpha virt. eigenvalues --    0.14775   0.14775   0.16790   0.16790   0.16790
 Alpha virt. eigenvalues --    0.22373   0.22373   0.22373   0.22893   0.25591
 Alpha virt. eigenvalues --    0.25591   0.25591   0.34013   0.34013   0.34013
 Alpha virt. eigenvalues --    0.40053   0.43988   0.43988   0.43988   0.48227
 Alpha virt. eigenvalues --    0.53221   0.53221   0.66577   0.66577   0.66577
 Alpha virt. eigenvalues --    0.77781   0.77975   0.77975   0.78265   0.78265
 Alpha virt. eigenvalues --    0.78265   0.81413   0.81413   0.81413   0.91515
 Alpha virt. eigenvalues --    0.91515   0.91515   0.96882   0.96882   0.96882
 Alpha virt. eigenvalues --    0.99460   0.99460   0.99893   0.99893   0.99893
 Alpha virt. eigenvalues --    1.13450   1.15086   1.15086   1.15086   1.28903
 Alpha virt. eigenvalues --    1.28903   1.28903   1.43271   1.43271   1.43271
 Alpha virt. eigenvalues --    1.45566   1.50471   1.50471   1.64484   1.64484
 Alpha virt. eigenvalues --    1.64484   1.96706   2.04919   2.04951   2.04951
 Alpha virt. eigenvalues --    2.04951   2.10595   2.10595   2.11509   2.11509
 Alpha virt. eigenvalues --    2.11509   2.15441   2.15441   2.15441   2.19263
 Alpha virt. eigenvalues --    2.19263   2.19263   2.31953   2.31953   2.31953
 Alpha virt. eigenvalues --    2.36717   2.36717   2.36717   2.37325   2.37325
 Alpha virt. eigenvalues --    2.63596   2.69316   2.69316   2.69316   2.79887
 Alpha virt. eigenvalues --    2.79887   2.84220   2.84220   2.84220   2.85906
 Alpha virt. eigenvalues --    2.85906   2.85906   3.12101   3.23085   3.23085
 Alpha virt. eigenvalues --    3.23085   3.24809   3.42814   3.42814   3.45254
 Alpha virt. eigenvalues --    3.45254   3.45254   3.46822   3.46822   3.46822
 Alpha virt. eigenvalues --    4.47512   4.47512   4.47512   4.49525
          Condensed to atoms (all electrons):
               1          2          3          4          5          6
     1  Si  12.026178   0.321198   0.321198   0.321198   0.321198  -0.026090
     2  C    0.321198   5.493187  -0.083593  -0.083593  -0.083593   0.010105
     3  C    0.321198  -0.083593   5.493187  -0.083593  -0.083593   0.383816
     4  C    0.321198  -0.083593  -0.083593   5.493187  -0.083593  -0.003585
     5  C    0.321198  -0.083593  -0.083593  -0.083593   5.493187  -0.003585
     6  H   -0.026090   0.010105   0.383816  -0.003585  -0.003585   0.528329
     7  H   -0.026090  -0.003585   0.383816   0.010105  -0.003585  -0.023780
     8  H   -0.026090  -0.003585   0.383816  -0.003585   0.010105  -0.023780
     9  H   -0.026090   0.383816   0.010105  -0.003585  -0.003585  -0.000019
    10  H   -0.026090   0.383816  -0.003585  -0.003585   0.010105   0.000001
    11  H   -0.026090   0.383816  -0.003585   0.010105  -0.003585   0.000001
    12  H   -0.026090  -0.003585   0.010105  -0.003585   0.383816   0.000001
    13  H   -0.026090  -0.003585  -0.003585   0.010105   0.383816  -0.000022
    14  H   -0.026090   0.010105  -0.003585  -0.003585   0.383816   0.000425
    15  H   -0.026090   0.010105  -0.003585   0.383816  -0.003585   0.000425
    16  H   -0.026090  -0.003585  -0.003585   0.383816   0.010105  -0.000022
    17  H   -0.026090  -0.003585   0.010105   0.383816  -0.003585   0.000001
               7          8          9         10         11         12
     1  Si  -0.026090  -0.026090  -0.026090  -0.026090  -0.026090  -0.026090
     2  C   -0.003585  -0.003585   0.383816   0.383816   0.383816  -0.003585
     3  C    0.383816   0.383816   0.010105  -0.003585  -0.003585   0.010105
     4  C    0.010105  -0.003585  -0.003585  -0.003585   0.010105  -0.003585
     5  C   -0.003585   0.010105  -0.003585   0.010105  -0.003585   0.383816
     6  H   -0.023780  -0.023780  -0.000019   0.000001   0.000001   0.000001
     7  H    0.528329  -0.023780   0.000001  -0.000022   0.000425   0.000001
     8  H   -0.023780   0.528329   0.000001   0.000425  -0.000022  -0.000019
     9  H    0.000001   0.000001   0.528329  -0.023780  -0.023780   0.000425
    10  H   -0.000022   0.000425  -0.023780   0.528329  -0.023780   0.000001
    11  H    0.000425  -0.000022  -0.023780  -0.023780   0.528329  -0.000022
    12  H    0.000001  -0.000019   0.000425   0.000001  -0.000022   0.528329
    13  H    0.000425   0.000001  -0.000022   0.000001   0.000425  -0.023780
    14  H   -0.000022   0.000001   0.000001  -0.000019   0.000001  -0.023780
    15  H    0.000001  -0.000022   0.000001   0.000001  -0.000019  -0.000022
    16  H    0.000001   0.000425  -0.000022   0.000425   0.000001   0.000001
    17  H   -0.000019   0.000001   0.000425  -0.000022   0.000001   0.000425
              13         14         15         16         17
     1  Si  -0.026090  -0.026090  -0.026090  -0.026090  -0.026090
     2  C   -0.003585   0.010105   0.010105  -0.003585  -0.003585
     3  C   -0.003585  -0.003585  -0.003585  -0.003585   0.010105
     4  C    0.010105  -0.003585   0.383816   0.383816   0.383816
     5  C    0.383816   0.383816  -0.003585   0.010105  -0.003585
     6  H   -0.000022   0.000425   0.000425  -0.000022   0.000001
     7  H    0.000425  -0.000022   0.000001   0.000001  -0.000019
     8  H    0.000001   0.000001  -0.000022   0.000425   0.000001
     9  H   -0.000022   0.000001   0.000001  -0.000022   0.000425
    10  H    0.000001  -0.000019   0.000001   0.000425  -0.000022
    11  H    0.000425   0.000001  -0.000019   0.000001   0.000001
    12  H   -0.023780  -0.023780  -0.000022   0.000001   0.000425
    13  H    0.528329  -0.023780   0.000001  -0.000019   0.000001
    14  H   -0.023780   0.528329   0.000425   0.000001  -0.000022
    15  H    0.000001   0.000425   0.528329  -0.023780  -0.023780
    16  H   -0.000019   0.000001  -0.023780   0.528329  -0.023780
    17  H    0.000001  -0.000022  -0.023780  -0.023780   0.528329
 Mulliken charges:
               1
     1  Si   1.002110
     2  C   -0.723859
     3  C   -0.723859
     4  C   -0.723859
     5  C   -0.723859
     6  H    0.157777
     7  H    0.157777
     8  H    0.157777
     9  H    0.157777
    10  H    0.157777
    11  H    0.157777
    12  H    0.157777
    13  H    0.157777
    14  H    0.157777
    15  H    0.157777
    16  H    0.157777
    17  H    0.157777
 Sum of Mulliken charges =   0.00000
 Mulliken charges with hydrogens summed into heavy atoms:
               1
     1  Si   1.002110
     2  C   -0.250527
     3  C   -0.250527
     4  C   -0.250527
     5  C   -0.250527
 Electronic spatial extent (au):  <R**2>=            674.0039
 Charge=              0.0000 electrons
 Dipole moment (field-independent basis, Debye):
    X=             -0.0000    Y=             -0.0000    Z=              0.0000  Tot=              0.0000
 Quadrupole moment (field-independent basis, Debye-Ang):
   XX=            -43.0539   YY=            -43.0539   ZZ=            -43.0539
   XY=              0.0000   XZ=             -0.0000   YZ=              0.0000
 Traceless Quadrupole moment (field-independent basis, Debye-Ang):
   XX=              0.0000   YY=             -0.0000   ZZ=             -0.0000
   XY=              0.0000   XZ=             -0.0000   YZ=              0.0000
 Octapole moment (field-independent basis, Debye-Ang**2):
  XXX=             -0.0000  YYY=             -0.0000  ZZZ=              0.0000  XYY=             -0.0000
  XXY=             -0.0000  XXZ=              0.0000  XZZ=              0.0000  YZZ=              0.0000
  YYZ=             -0.0000  XYZ=             -5.8513
 Hexadecapole moment (field-independent basis, Debye-Ang**3):
 XXXX=           -337.0217 YYYY=           -337.0217 ZZZZ=           -337.0217 XXXY=              0.0000
 XXXZ=             -0.0000 YYYX=              0.0000 YYYZ=             -0.0000 ZZZX=             -0.0000
 ZZZY=              0.0000 XXYY=           -113.4580 XXZZ=           -113.4580 YYZZ=           -113.4580
 XXYZ=             -0.0000 YYXZ=             -0.0000 ZZXY=              0.0000
 N-N= 2.442437840981D+02 E-N=-1.545662938806D+03  KE= 4.463361453215D+02
 Symmetry A    KE= 2.511797504303D+02
 Symmetry B1   KE= 6.505213163043D+01
 Symmetry B2   KE= 6.505213163043D+01
 Symmetry B3   KE= 6.505213163043D+01
 Calculating spin-rotation constants.
 Leave Link  601 at Sun Sep  1 13:18:55 2024, MaxMem=   268435456 cpu:         6.2
 (Enter /g100_work/pMI24_ChiCa/g09d1/g09d01/d01/build-node-6-2-59348/src/main/l9999.exe)
 1\1\GINC-R500N001\SP\RB3LYP\6-31+G(d,p)\C4H12Si1\ECABIATI\01-Sep-2024\
 0\\#p B3LYP/6-31+g(d,p) nmr=giao\\tetramethylsilane nmr\\0,1\Si\C,1,1.
 8955\C,1,1.8955,2,109.47122063\C,1,1.8955,2,109.47122063,3,120.,0\C,1,
 1.8955,3,109.47122063,2,120.,0\H,3,1.0964,1,111.2523,2,180.,0\H,3,1.09
 64,1,111.2523,6,120.,0\H,3,1.0964,1,111.2523,6,240.,0\H,2,1.0964,1,111
 .2523,3,180.,0\H,2,1.0964,1,111.2523,9,120.,0\H,2,1.0964,1,111.2523,9,
 240.,0\H,5,1.0964,1,111.2523,3,180.,0\H,5,1.0964,1,111.2523,12,120.,0\
 H,5,1.0964,1,111.2523,12,240.,0\H,4,1.0964,1,111.2523,2,180.,0\H,4,1.0
 964,1,111.2523,15,120.,0\H,4,1.0964,1,111.2523,15,240.,0\\Version=EM64
 L-G09RevD.01\State=1-A1\HF=-449.2184229\RMSD=7.176e-09\Dipole=0.,0.,0.
 \Quadrupole=0.,0.,0.,0.,0.,0.\PG=TD [O(Si1),4C3(C1),6SGD(H2)]\\@


 "WHERE SHALL I START, PLEASE YOUR MAJESTY?" HE ASKED.
 "BEGIN AT THE BEGINNING," THE KING SAID GRAVELY,
 "AND GO ON TILL YOU COME TO THE END: THEN STOP." 

                                      -- LEWIS CARROLL
 Job cpu time:       0 days  0 hours  0 minutes 55.3 seconds.
 File lengths (MBytes):  RWF=     13 Int=      0 D2E=      0 Chk=      3 Scr=      1
 Normal termination of Gaussian 09 at Sun Sep  1 13:18:55 2024.
